          AutoDock 4.2 Release 4.2.6   
         (C) 1989-2012 The Scripps Research Institute
        AutoDock comes with ABSOLUTELY NO WARRANTY.
        AutoDock is free software, and you are welcome
        to redistribute it under certain conditions;
        for details type 'autodock4 -C'

                     main.cc  $Revision: 1.213 $

                   Compiled on Jul 18 2014 at 15:34:58


This file was created at:			8:59 40" p.m., 12/15/2025
                   on host:		"LAPTOP-PFTQOH6G"
Current Working Directory = "C:\Program Files (x86)\Docking\December 25\1512 3SM12"

      ________________________________________________________________

                   SETTING UP DEFAULT PARAMETER LIBRARY
      ________________________________________________________________


Random number generator was seeded with values 26596, 1765821580.
Docking parameter file (DPF) used for this docking:		dock.dpf
DPF> autodock_parameter_version 4.2       # used by autodock to validate parameter set

	Autodock parameter version 4.2.
DPF> outlev 1                             # diagnostic output level

Output Level = 1  ADT-COMPATIBLE OUTPUT DURING DOCKING.
DPF> intelec                              # calculate internal electrostatics

Electrostatic energies will be calculated for all non-bonds between moving atoms.
DPF> seed pid time                        # seeds for random generator

Random number generator was seeded with values 26596, 1765821580.
DPF> ligand_types C OA HD N               # atoms types in ligand

DPF> fld 3sm1.maps.fld                    # grid_data_file

Opening Grid Map Dimensions file:		3sm1.maps.fld
Grid Point Spacing =				0.375 Angstroms

Even Number of User-specified Grid Points =	36 x-points
						24 y-points
						34 z-points

Coordinates of Central Grid Point of Maps =	(-9.580, 5.470, 4.356)
Macromolecule file used to create Grid Maps =	3sm1.pdbqt
Grid Parameter file used to create Grid Maps =	grid.gpf
Minimum coordinates in grid = (-16.330, 0.970, -2.019)
Maximum coordinates in grid = (-2.830, 9.970, 10.731)

DPF> map 3sm1.C.map                       # atom-specific affinity map

DPF> map 3sm1.OA.map                      # atom-specific affinity map

DPF> map 3sm1.HD.map                      # atom-specific affinity map

DPF> map 3sm1.N.map                       # atom-specific affinity map

DPF> elecmap 3sm1.e.map                   # electrostatics map

DPF> desolvmap 3sm1.d.map                 # desolvation map

DPF> move lig3sm1_fixed.pdbqt             # small molecule

1,4-interactions will be _ignored_ in the non-bonded internal energy calculation.

Ligand PDBQT file = "lig3sm1_fixed.pdbqt"

INPUT LIGAND PDBQT FILE:
________________________

INPUT-LIGAND-PDBQT: REMARK  17 active torsions:
INPUT-LIGAND-PDBQT: REMARK  status: ('A' for Active; 'I' for Inactive)
INPUT-LIGAND-PDBQT: REMARK    1  A    between atoms: CA_1  and  C_2 
INPUT-LIGAND-PDBQT: REMARK    2  A    between atoms: CA_1  and  CB_4 
INPUT-LIGAND-PDBQT: REMARK       I    between atoms: C_2  and  N_7 
INPUT-LIGAND-PDBQT: REMARK    3  A    between atoms: N_7  and  CA_8 
INPUT-LIGAND-PDBQT: REMARK    4  A    between atoms: CA_8  and  C_9 
INPUT-LIGAND-PDBQT: REMARK    5  A    between atoms: CA_8  and  CB_11 
INPUT-LIGAND-PDBQT: REMARK       I    between atoms: C_9  and  N_15 
INPUT-LIGAND-PDBQT: REMARK    6  A    between atoms: N_15  and  CA_16 
INPUT-LIGAND-PDBQT: REMARK    7  A    between atoms: CA_16  and  C_17 
INPUT-LIGAND-PDBQT: REMARK    8  A    between atoms: CA_16  and  CB_19 
INPUT-LIGAND-PDBQT: REMARK       I    between atoms: C_17  and  N_23 
INPUT-LIGAND-PDBQT: REMARK    9  A    between atoms: N_23  and  CA_24 
INPUT-LIGAND-PDBQT: REMARK   10  A    between atoms: CA_24  and  CB_27 
INPUT-LIGAND-PDBQT: REMARK   11  A    between atoms: CA_24  and  CH_31 
INPUT-LIGAND-PDBQT: REMARK   12  A    between atoms: C_25  and  O_26 
INPUT-LIGAND-PDBQT: REMARK   13  A    between atoms: C_25  and  CM_33 
INPUT-LIGAND-PDBQT: REMARK   14  A    between atoms: C_25  and  N_37 
INPUT-LIGAND-PDBQT: REMARK   15  A    between atoms: CB_27  and  CG_28 
INPUT-LIGAND-PDBQT: REMARK   16  A    between atoms: CH_31  and  OH_32 
INPUT-LIGAND-PDBQT: REMARK   17  A    between atoms: CH_31  and  CM_33 
INPUT-LIGAND-PDBQT: ROOT
INPUT-LIGAND-PDBQT: ATOM      1  CA  VAL J   3      -9.532   5.199   4.236  1.00 14.89     0.180 C 
INPUT-LIGAND-PDBQT: ENDROOT
INPUT-LIGAND-PDBQT: BRANCH   1   2
INPUT-LIGAND-PDBQT: ATOM      2  N   VAL J   3      -8.403   5.374   5.158  1.00 14.15    -0.346 N 
INPUT-LIGAND-PDBQT: ATOM      3  H09 VAL J   3      -8.472   6.064   5.893  1.00 14.15     0.163 HD
INPUT-LIGAND-PDBQT: ATOM      4  C   VAL J   2      -7.302   4.658   5.055  1.00 16.04     0.241 C 
INPUT-LIGAND-PDBQT: ATOM      5  O   VAL J   2      -7.161   3.764   4.204  1.00 16.00    -0.271 OA
INPUT-LIGAND-PDBQT: BRANCH   4   6
INPUT-LIGAND-PDBQT: ATOM      6  CA  VAL J   2      -6.177   5.000   6.047  1.00 16.95     0.180 C 
INPUT-LIGAND-PDBQT: BRANCH   6   7
INPUT-LIGAND-PDBQT: ATOM      7  N   VAL J   2      -5.934   3.753   6.763  1.00 17.44    -0.347 N 
INPUT-LIGAND-PDBQT: HETATM    8  C   IVA J   1      -5.734   3.702   8.074  1.00 19.71     0.218 C 
INPUT-LIGAND-PDBQT: HETATM    9  O   IVA J   1      -5.685   4.734   8.749  1.00 19.85    -0.274 OA
INPUT-LIGAND-PDBQT: ATOM     10  H10 VAL J   2      -5.917   2.890   6.238  1.00 17.44     0.163 HD
INPUT-LIGAND-PDBQT: BRANCH   8  11
INPUT-LIGAND-PDBQT: HETATM   11  CA  IVA J   1      -5.557   2.335   8.709  1.00 23.24     0.106 C 
INPUT-LIGAND-PDBQT: BRANCH  11  12
INPUT-LIGAND-PDBQT: HETATM   12  CB  IVA J   1      -6.863   1.724   9.253  1.00 24.71    -0.014 C 
INPUT-LIGAND-PDBQT: HETATM   13  CG1 IVA J   1      -7.486   2.575  10.351  1.00 28.30     0.010 C 
INPUT-LIGAND-PDBQT: HETATM   14  CG2 IVA J   1      -7.933   1.443   8.207  1.00 26.67     0.010 C 
INPUT-LIGAND-PDBQT: ENDBRANCH  11  12
INPUT-LIGAND-PDBQT: ENDBRANCH   8  11
INPUT-LIGAND-PDBQT: ENDBRANCH   6   7
INPUT-LIGAND-PDBQT: BRANCH   6  15
INPUT-LIGAND-PDBQT: ATOM     15  CB  VAL J   2      -4.938   5.534   5.267  1.00 19.32     0.009 C 
INPUT-LIGAND-PDBQT: ATOM     16  CG1 VAL J   2      -5.312   6.605   4.223  1.00 23.23     0.012 C 
INPUT-LIGAND-PDBQT: ATOM     17  CG2 VAL J   2      -3.880   6.090   6.232  1.00 24.26     0.012 C 
INPUT-LIGAND-PDBQT: ENDBRANCH   6  15
INPUT-LIGAND-PDBQT: ENDBRANCH   4   6
INPUT-LIGAND-PDBQT: ENDBRANCH   1   2
INPUT-LIGAND-PDBQT: BRANCH   1  18
INPUT-LIGAND-PDBQT: ATOM     18  C   VAL J   3      -9.819   6.553   3.593  1.00 17.51     0.241 C 
INPUT-LIGAND-PDBQT: HETATM   19  N   STA J   4     -10.177   6.570   2.295  1.00 19.03    -0.352 N 
INPUT-LIGAND-PDBQT: HETATM   20  H09 STA J   4     -10.216   5.703   1.779  1.00 19.03     0.163 HD
INPUT-LIGAND-PDBQT: ATOM     21  O   VAL J   3      -9.756   7.562   4.286  1.00 15.93    -0.271 OA
INPUT-LIGAND-PDBQT: BRANCH  19  22
INPUT-LIGAND-PDBQT: HETATM   22  CA  STA J   4     -10.511   7.828   1.620  1.00 22.00     0.113 C 
INPUT-LIGAND-PDBQT: BRANCH  22  23
INPUT-LIGAND-PDBQT: HETATM   23  CB  STA J   4     -10.205   7.750   0.118  1.00 20.70     0.031 C 
INPUT-LIGAND-PDBQT: BRANCH  23  24
INPUT-LIGAND-PDBQT: HETATM   24  CG  STA J   4      -8.708   7.563  -0.188  1.00 23.09    -0.021 C 
INPUT-LIGAND-PDBQT: HETATM   25  CD1 STA J   4      -7.854   8.706   0.353  1.00 26.26     0.009 C 
INPUT-LIGAND-PDBQT: HETATM   26  CD2 STA J   4      -8.440   7.401  -1.693  1.00 21.88     0.009 C 
INPUT-LIGAND-PDBQT: ENDBRANCH  23  24
INPUT-LIGAND-PDBQT: ENDBRANCH  22  23
INPUT-LIGAND-PDBQT: BRANCH  22  27
INPUT-LIGAND-PDBQT: HETATM   27  CH  STA J   4     -11.959   8.228   2.008  1.00 22.11     0.145 C 
INPUT-LIGAND-PDBQT: BRANCH  27  28
INPUT-LIGAND-PDBQT: HETATM   28  OH  STA J   4     -12.342   9.513   1.533  1.00 20.84    -0.393 OA
INPUT-LIGAND-PDBQT: HETATM   29  H15 STA J   4     -12.489   9.474   0.585  1.00 20.84     0.210 HD
INPUT-LIGAND-PDBQT: ENDBRANCH  27  28
INPUT-LIGAND-PDBQT: BRANCH  27  30
INPUT-LIGAND-PDBQT: HETATM   30  CM  STA J   4     -12.952   7.197   1.508  1.00 21.93     0.097 C 
INPUT-LIGAND-PDBQT: BRANCH  30  31
INPUT-LIGAND-PDBQT: HETATM   31  C   STA J   4     -14.367   7.415   2.010  1.00 28.39     0.353 C 
INPUT-LIGAND-PDBQT: BRANCH  31  32
INPUT-LIGAND-PDBQT: HETATM   32  O   STA J   4     -14.674   7.369   3.386  1.00 30.94    -0.368 OA
INPUT-LIGAND-PDBQT: HETATM   33  H03 STA J   4     -14.542   8.238   3.773  1.00 30.94     0.212 HD
INPUT-LIGAND-PDBQT: ENDBRANCH  31  32
INPUT-LIGAND-PDBQT: BRANCH  31  34
INPUT-LIGAND-PDBQT: ATOM     34  N   ALA J   5     -15.286   7.480   1.049  1.00 32.34     0.107 N 
INPUT-LIGAND-PDBQT: ATOM     35  H01 ALA J   5     -15.588   6.547   0.807  1.00 32.34     0.316 HD
INPUT-LIGAND-PDBQT: ATOM     36  H18 ALA J   5     -14.891   7.928   0.235  1.00 32.34     0.316 HD
INPUT-LIGAND-PDBQT: ENDBRANCH  31  34
INPUT-LIGAND-PDBQT: ENDBRANCH  30  31
INPUT-LIGAND-PDBQT: ENDBRANCH  27  30
INPUT-LIGAND-PDBQT: ENDBRANCH  22  27
INPUT-LIGAND-PDBQT: ENDBRANCH  19  22
INPUT-LIGAND-PDBQT: ENDBRANCH   1  18
INPUT-LIGAND-PDBQT: BRANCH   1  37
INPUT-LIGAND-PDBQT: ATOM     37  CB  VAL J   3     -10.785   4.704   5.020  1.00 18.12     0.009 C 
INPUT-LIGAND-PDBQT: ATOM     38  CG1 VAL J   3     -12.051   4.780   4.183  1.00 22.19     0.012 C 
INPUT-LIGAND-PDBQT: ATOM     39  CG2 VAL J   3     -10.583   3.269   5.522  1.00 17.43     0.012 C 
INPUT-LIGAND-PDBQT: ENDBRANCH   1  37
INPUT-LIGAND-PDBQT: TORSDOF 17
________________________________________________________________________________

Total charge on ligand                               =	+1.002 e
REMARK  17 active torsions:
REMARK  status: ('A' for Active; 'I' for Inactive)
REMARK    1  A    between atoms: CA_1  and  C_2 
REMARK    2  A    between atoms: CA_1  and  CB_4 
REMARK       I    between atoms: C_2  and  N_7 
REMARK    3  A    between atoms: N_7  and  CA_8 
REMARK    4  A    between atoms: CA_8  and  C_9 
REMARK    5  A    between atoms: CA_8  and  CB_11 
REMARK       I    between atoms: C_9  and  N_15 
REMARK    6  A    between atoms: N_15  and  CA_16 
REMARK    7  A    between atoms: CA_16  and  C_17 
REMARK    8  A    between atoms: CA_16  and  CB_19 
REMARK       I    between atoms: C_17  and  N_23 
REMARK    9  A    between atoms: N_23  and  CA_24 
REMARK   10  A    between atoms: CA_24  and  CB_27 
REMARK   11  A    between atoms: CA_24  and  CH_31 
REMARK   12  A    between atoms: C_25  and  O_26 
REMARK   13  A    between atoms: C_25  and  CM_33 
REMARK   14  A    between atoms: C_25  and  N_37 
REMARK   15  A    between atoms: CB_27  and  CG_28 
REMARK   16  A    between atoms: CH_31  and  OH_32 
REMARK   17  A    between atoms: CH_31  and  CM_33 


Number of Rotatable Bonds in Small Molecule =	17 torsions
Number of atoms in ligand:  39

Number of non-hydrogen atoms in ligand:  32

Number of vibrational degrees of freedom of ligand:  111


Number of torsional degrees of freedom = 17
Estimated loss of torsional free energy upon binding = +5.0711 kcal/mol


DPF> about -9.499 5.878 4.011            # small molecule center

Small molecule center of rotation =	(-9.499, +5.878, +4.011)

DPF> tran0 random                         # initial coordinates/A or random

Initial translation =			(-9.748, 5.176, 7.402) Angstroms
DPF> quaternion0 random                   # initial orientation

Each run will begin with a new, random initial orientation.
Initial quaternion,  (x,y,z,w) =	( -0.010, 0.202, 0.485, -0.851 ),
DPF> dihe0 random                         # initial dihedrals (relative) or random

DPF> torsdof 17                            # torsional degrees of freedom

Number of torsional degrees of freedom = 17
Free energy coefficient for torsional degrees of freedom = 0.2983, the factory default value.

Estimated loss of torsional free energy upon binding = +5.0711 kcal/mol

DPF> rmstol 2.0                           # cluster_tolerance/A

Maximum RMS tolerance for conformational cluster analysis = 2.00 Angstroms
DPF> extnrg 1000.0                        # external grid energy

External grid energy (beyond grid map walls) = 1000.00

DPF> e0max 0.0 10000                      # max initial energy; max number of retries

Using user-specified maximum number of retries for simanneal initialization, 10000 retries.
If the simanneal initial energy is greater than e0max, 0.000,
then a new, random initial state will be created.

DPF> ga_pop_size 150                      # number of individuals in population

A population of 150 individuals will be used
DPF> ga_num_evals 2500000                 # maximum number of energy evaluations

There will be at most 2500000 function evaluations used.
DPF> ga_num_generations 27000             # maximum number of generations

The GA will run for at most 27000 generations.
DPF> ga_elitism 1                         # number of top individuals to survive to next generation

The 1 best will be preserved each GA generation.
DPF> ga_mutation_rate 0.02                # rate of gene mutation

The mutation rate is 0.020000.
DPF> ga_crossover_rate 0.8                # rate of crossover

The crossover rate is 0.800000.
DPF> ga_window_size 10                    # 

The GA's selection window is 10 generations.
DPF> ga_cauchy_alpha 0.0                  # Alpha parameter of Cauchy distribution

The alpha parameter (for the Cauchy distribution) is being set to 0.000000.
DPF> ga_cauchy_beta 1.0                   # Beta parameter Cauchy distribution

The beta parameter (for the Cauchy distribution) is being set to 1.000000.
DPF> set_ga                               # set the above parameters for GA or LGA

DPF> sw_max_its 300                       # iterations of Solis & Wets local search

Solis & Wets algorithms will perform at most 300 iterations.
DPF> sw_max_succ 4                        # consecutive successes before changing rho

Solis & Wets algorithms expand rho every 4 in a row successes.
DPF> sw_max_fail 4                        # consecutive failures before changing rho

Solis & Wets algorithms contract rho every 4 in a row failures.
DPF> sw_rho 1.0                           # size of local search space to sample

rho is set to 1.000000.
DPF> sw_lb_rho 0.01                       # lower bound on rho

rho will never get smaller than 0.010000.
DPF> ls_search_freq 0.06                  # probability of performing local search on individual

Local search will be performed with frequency 0.060000.
DPF> set_psw1                             # set the above pseudo-Solis & Wets parameters

Creating a new Local Search object using the pseudo-Solis-Wets algorithm (pSW1) with the current settings.

DPF> unbound_model bound                  # state of unbound ligand

DPF> ga_run 10                            # do this many hybrid GA-LS runs

centering ligand on specified point: -9.499 5.878 4.011
Furthest true ligand atom from "about" center is 7.427 Angstroms (maxrad).
Number of requested GA dockings = 10 runs
Unbound model to be used is 'same as bound' [AutoDock 4.2 default].

	BEGINNING GENETIC ALGORITHM DOCKING 1 of 10
Run: 1 Seed: 1175584841 1274619466 [ Run 1 of 10 GA/GALS ]
Beginning LAMARCKIAN GENETIC ALGORITHM (LGA), with a maximum of 2500000 energy evaluations.

Final-Value: -14.183


	FINAL GENETIC ALGORITHM DOCKED STATE
	_______________________________________________


Detailed state:  trans -10.014 3.362 4.962 quatxyzw 0.240598 0.879921 -0.317034 0.259499 center -9.499 5.878 4.011 ntor 17 41.0286 -142.8864 -1.3240 115.4987 -63.7964 10.1778 -128.7856 179.8654 -83.4016 97.2273 6.6722 63.8502 -3.7119 -121.4615 167.8402 39.9663 -57.2310
State:	-10.014   3.362   4.962   0.249  0.911 -0.328 149.919     41.03 -142.89   -1.32  115.50  -63.80   10.18 -128.79  179.87  -83.40   97.23    6.67   63.85   -3.71 -121.46  167.84   39.97  -57.23

DOCKED: MODEL        1
DOCKED: USER    Run = 1
DOCKED: USER    DPF = dock.dpf
DOCKED: USER  
DOCKED: USER    Estimated Free Energy of Binding    =   -3.61 kcal/mol  [=(1)+(2)+(3)-(4)]
DOCKED: USER    Estimated Inhibition Constant, Ki   =    2.25 mM (millimolar)  [Temperature = 298.15 K]
DOCKED: USER    
DOCKED: USER    (1) Final Intermolecular Energy     =   -8.68 kcal/mol
DOCKED: USER        vdW + Hbond + desolv Energy     =   -8.70 kcal/mol
DOCKED: USER        Electrostatic Energy            =   +0.01 kcal/mol
DOCKED: USER    (2) Final Total Internal Energy     =   -5.50 kcal/mol
DOCKED: USER    (3) Torsional Free Energy           =   +5.07 kcal/mol
DOCKED: USER    (4) Unbound System's Energy  [=(2)] =   -5.50 kcal/mol
DOCKED: USER    
DOCKED: USER    
DOCKED: USER    NEWDPF move lig3sm1_fixed.pdbqt
DOCKED: USER    NEWDPF about -9.499000 5.878000 4.011000
DOCKED: USER    NEWDPF tran0 -10.013663 3.362174 4.961652
DOCKED: USER    NEWDPF quaternion0 0.240598 0.879921 -0.317034 0.259499
DOCKED: USER    NEWDPF axisangle0 0.249133 0.911134 -0.328280 149.919281
DOCKED: USER    NEWDPF quat0 0.249133 0.911134 -0.328280 149.919281
DOCKED: USER    NEWDPF dihe0 41.03 -142.89 -1.32 115.50 -63.80 10.18 -128.79 179.87 -83.40 97.23 6.67 63.85 -3.71 -121.46 167.84 39.97 -57.23 
DOCKED: USER  keepresnum = 1 
DOCKED: USER  
DOCKED: REMARK  17 active torsions:
DOCKED: REMARK  status: ('A' for Active; 'I' for Inactive)
DOCKED: REMARK    1  A    between atoms: CA_1  and  C_2 
DOCKED: REMARK    2  A    between atoms: CA_1  and  CB_4 
DOCKED: REMARK       I    between atoms: C_2  and  N_7 
DOCKED: REMARK    3  A    between atoms: N_7  and  CA_8 
DOCKED: REMARK    4  A    between atoms: CA_8  and  C_9 
DOCKED: REMARK    5  A    between atoms: CA_8  and  CB_11 
DOCKED: REMARK       I    between atoms: C_9  and  N_15 
DOCKED: REMARK    6  A    between atoms: N_15  and  CA_16 
DOCKED: REMARK    7  A    between atoms: CA_16  and  C_17 
DOCKED: REMARK    8  A    between atoms: CA_16  and  CB_19 
DOCKED: REMARK       I    between atoms: C_17  and  N_23 
DOCKED: REMARK    9  A    between atoms: N_23  and  CA_24 
DOCKED: REMARK   10  A    between atoms: CA_24  and  CB_27 
DOCKED: REMARK   11  A    between atoms: CA_24  and  CH_31 
DOCKED: REMARK   12  A    between atoms: C_25  and  O_26 
DOCKED: REMARK   13  A    between atoms: C_25  and  CM_33 
DOCKED: REMARK   14  A    between atoms: C_25  and  N_37 
DOCKED: REMARK   15  A    between atoms: CB_27  and  CG_28 
DOCKED: REMARK   16  A    between atoms: CH_31  and  OH_32 
DOCKED: REMARK   17  A    between atoms: CH_31  and  CM_33 
DOCKED: USER                              x       y       z     vdW  Elec       q    Type
DOCKED: USER                           _______ _______ _______ _____ _____    ______ ____
DOCKED: ROOT
DOCKED: ATOM      1  CA  VAL J   3     -10.302   2.781   5.266 -0.27 +0.06    +0.180 C 
DOCKED: ENDROOT
DOCKED: BRANCH   1   2
DOCKED: ATOM      2  N   VAL J   3     -11.664   3.166   4.877 -0.13 -0.12    -0.346 N 
DOCKED: ATOM      3  H09 VAL J   3     -12.083   2.734   4.065 +0.07 +0.06    +0.163 HD
DOCKED: ATOM      4  C   VAL J   2     -12.358   4.057   5.556 -0.22 +0.08    +0.241 C 
DOCKED: ATOM      5  O   VAL J   2     -11.925   4.598   6.588 -0.25 -0.09    -0.271 OA
DOCKED: BRANCH   4   6
DOCKED: ATOM      6  CA  VAL J   2     -13.744   4.410   4.991 -0.17 +0.05    +0.180 C 
DOCKED: BRANCH   6   7
DOCKED: ATOM      7  N   VAL J   2     -13.868   3.585   3.795 -0.07 -0.11    -0.347 N 
DOCKED: ATOM      8  C   IVA J   1     -13.213   3.843   2.670 -0.11 +0.06    +0.218 C 
DOCKED: ATOM      9  O   IVA J   1     -12.502   4.846   2.565 -0.09 -0.04    -0.274 OA
DOCKED: ATOM     10  H10 VAL J   2     -14.480   2.781   3.824 +0.03 +0.05    +0.163 HD
DOCKED: BRANCH   8  11
DOCKED: ATOM     11  CA  IVA J   1     -13.379   2.870   1.517 -0.15 +0.03    +0.106 C 
DOCKED: BRANCH  11  12
DOCKED: ATOM     12  CB  IVA J   1     -14.598   3.163   0.620 -0.08 -0.00    -0.014 C 
DOCKED: ATOM     13  CG1 IVA J   1     -15.914   3.042   1.376 -0.05 +0.00    +0.010 C 
DOCKED: ATOM     14  CG2 IVA J   1     -14.577   4.514  -0.081 -0.06 +0.00    +0.010 C 
DOCKED: ENDBRANCH  11  12
DOCKED: ENDBRANCH   8  11
DOCKED: ENDBRANCH   6   7
DOCKED: BRANCH   6  15
DOCKED: ATOM     15  CB  VAL J   2     -14.834   4.130   6.069 -0.25 +0.00    +0.009 C 
DOCKED: ATOM     16  CG1 VAL J   2     -16.170   4.832   5.756 -0.11 +0.00    +0.012 C 
DOCKED: ATOM     17  CG2 VAL J   2     -15.062   2.621   6.240 -0.28 +0.00    +0.012 C 
DOCKED: ENDBRANCH   6  15
DOCKED: ENDBRANCH   4   6
DOCKED: ENDBRANCH   1   2
DOCKED: BRANCH   1  18
DOCKED: ATOM     18  C   VAL J   3      -9.344   3.816   4.681 -0.21 +0.06    +0.241 C 
DOCKED: ATOM     19  N   STA J   4      -9.128   4.942   5.387 -0.09 -0.03    -0.352 N 
DOCKED: ATOM     20  H09 STA J   4      -9.620   5.086   6.257 -0.47 -0.01    +0.163 HD
DOCKED: ATOM     21  O   VAL J   3      -8.780   3.568   3.622 -0.27 -0.11    -0.271 OA
DOCKED: BRANCH  19  22
DOCKED: ATOM     22  CA  STA J   4      -8.188   5.963   4.911 -0.29 +0.02    +0.113 C 
DOCKED: BRANCH  22  23
DOCKED: ATOM     23  CB  STA J   4      -6.928   5.321   4.313 -0.40 +0.01    +0.031 C 
DOCKED: BRANCH  23  24
DOCKED: ATOM     24  CG  STA J   4      -5.657   6.162   4.530 -0.44 -0.00    -0.021 C 
DOCKED: ATOM     25  CD1 STA J   4      -4.949   6.498   3.221 -0.59 +0.00    +0.009 C 
DOCKED: ATOM     26  CD2 STA J   4      -4.663   5.475   5.480 -0.43 +0.00    +0.009 C 
DOCKED: ENDBRANCH  23  24
DOCKED: ENDBRANCH  22  23
DOCKED: BRANCH  22  27
DOCKED: ATOM     27  CH  STA J   4      -8.955   6.954   3.998 -0.36 +0.04    +0.145 C 
DOCKED: BRANCH  27  28
DOCKED: ATOM     28  OH  STA J   4      -8.208   8.118   3.666 -0.25 -0.13    -0.393 OA
DOCKED: ATOM     29  H15 STA J   4      -8.027   8.125   2.723 +0.12 +0.06    +0.210 HD
DOCKED: ENDBRANCH  27  28
DOCKED: BRANCH  27  30
DOCKED: ATOM     30  CM  STA J   4      -9.403   6.270   2.721 -0.24 +0.02    +0.097 C 
DOCKED: BRANCH  30  31
DOCKED: ATOM     31  C   STA J   4     -10.191   7.170   1.787 -0.14 +0.06    +0.353 C 
DOCKED: BRANCH  31  32
DOCKED: ATOM     32  O   STA J   4      -9.888   8.542   1.661 -0.15 -0.05    -0.368 OA
DOCKED: ATOM     33  H03 STA J   4      -9.920   8.958   2.526 -0.43 -0.01    +0.212 HD
DOCKED: ENDBRANCH  31  32
DOCKED: BRANCH  31  34
DOCKED: ATOM     34  N   ALA J   5     -11.265   6.597   1.249 -0.14 +0.02    +0.107 N 
DOCKED: ATOM     35  H01 ALA J   5     -12.081   6.826   1.798 +0.08 +0.06    +0.316 HD
DOCKED: ATOM     36  H18 ALA J   5     -11.139   5.595   1.233 -0.40 -0.06    +0.316 HD
DOCKED: ENDBRANCH  31  34
DOCKED: ENDBRANCH  30  31
DOCKED: ENDBRANCH  27  30
DOCKED: ENDBRANCH  22  27
DOCKED: ENDBRANCH  19  22
DOCKED: ENDBRANCH   1  18
DOCKED: BRANCH   1  37
DOCKED: ATOM     37  CB  VAL J   3      -9.968   1.367   4.702 -0.45 +0.00    +0.009 C 
DOCKED: ATOM     38  CG1 VAL J   3     -10.518   1.166   3.300 -0.47 +0.01    +0.012 C 
DOCKED: ATOM     39  CG2 VAL J   3      -8.454   1.122   4.703 -0.48 +0.01    +0.012 C 
DOCKED: ENDBRANCH   1  37
DOCKED: TORSDOF 17
DOCKED: TER
DOCKED: ENDMDL
________________________________________________________________________________


	BEGINNING GENETIC ALGORITHM DOCKING 2 of 10
Run: 2 Seed: 1047009524 1003598886 [ Run 2 of 10 GA/GALS ]
Beginning LAMARCKIAN GENETIC ALGORITHM (LGA), with a maximum of 2500000 energy evaluations.

Final-Value: -13.476


	FINAL GENETIC ALGORITHM DOCKED STATE
	_______________________________________________


Detailed state:  trans -11.032 5.314 4.902 quatxyzw -0.669488 -0.547088 0.462682 -0.195976 center -9.499 5.878 4.011 ntor 17 60.2699 -107.4258 -117.4499 -36.2962 179.8337 180.0000 125.1368 -177.1912 -6.9495 95.2663 87.0504 -68.4025 66.8889 179.8987 170.6306 50.5780 -4.5641
State:	-11.032   5.314   4.902  -0.683 -0.558  0.472 -157.397     60.27 -107.43 -117.45  -36.30  179.83  180.00  125.14 -177.19   -6.95   95.27   87.05  -68.40   66.89  179.90  170.63   50.58   -4.56

DOCKED: MODEL        2
DOCKED: USER    Run = 2
DOCKED: USER    DPF = dock.dpf
DOCKED: USER  
DOCKED: USER    Estimated Free Energy of Binding    =   -3.21 kcal/mol  [=(1)+(2)+(3)-(4)]
DOCKED: USER    Estimated Inhibition Constant, Ki   =    4.44 mM (millimolar)  [Temperature = 298.15 K]
DOCKED: USER    
DOCKED: USER    (1) Final Intermolecular Energy     =   -8.28 kcal/mol
DOCKED: USER        vdW + Hbond + desolv Energy     =   -8.35 kcal/mol
DOCKED: USER        Electrostatic Energy            =   +0.07 kcal/mol
DOCKED: USER    (2) Final Total Internal Energy     =   -5.20 kcal/mol
DOCKED: USER    (3) Torsional Free Energy           =   +5.07 kcal/mol
DOCKED: USER    (4) Unbound System's Energy  [=(2)] =   -5.20 kcal/mol
DOCKED: USER    
DOCKED: USER    
DOCKED: USER    NEWDPF move lig3sm1_fixed.pdbqt
DOCKED: USER    NEWDPF about -9.499000 5.878000 4.011000
DOCKED: USER    NEWDPF tran0 -11.032379 5.313878 4.902301
DOCKED: USER    NEWDPF quaternion0 -0.669488 -0.547088 0.462682 -0.195976
DOCKED: USER    NEWDPF axisangle0 -0.682727 -0.557906 0.471831 -157.396568
DOCKED: USER    NEWDPF quat0 -0.682727 -0.557906 0.471831 -157.396568
DOCKED: USER    NEWDPF dihe0 60.27 -107.43 -117.45 -36.30 179.83 180.00 125.14 -177.19 -6.95 95.27 87.05 -68.40 66.89 179.90 170.63 50.58 -4.56 
DOCKED: USER  keepresnum = 1 
DOCKED: USER  
DOCKED: REMARK  17 active torsions:
DOCKED: REMARK  status: ('A' for Active; 'I' for Inactive)
DOCKED: REMARK    1  A    between atoms: CA_1  and  C_2 
DOCKED: REMARK    2  A    between atoms: CA_1  and  CB_4 
DOCKED: REMARK       I    between atoms: C_2  and  N_7 
DOCKED: REMARK    3  A    between atoms: N_7  and  CA_8 
DOCKED: REMARK    4  A    between atoms: CA_8  and  C_9 
DOCKED: REMARK    5  A    between atoms: CA_8  and  CB_11 
DOCKED: REMARK       I    between atoms: C_9  and  N_15 
DOCKED: REMARK    6  A    between atoms: N_15  and  CA_16 
DOCKED: REMARK    7  A    between atoms: CA_16  and  C_17 
DOCKED: REMARK    8  A    between atoms: CA_16  and  CB_19 
DOCKED: REMARK       I    between atoms: C_17  and  N_23 
DOCKED: REMARK    9  A    between atoms: N_23  and  CA_24 
DOCKED: REMARK   10  A    between atoms: CA_24  and  CB_27 
DOCKED: REMARK   11  A    between atoms: CA_24  and  CH_31 
DOCKED: REMARK   12  A    between atoms: C_25  and  O_26 
DOCKED: REMARK   13  A    between atoms: C_25  and  CM_33 
DOCKED: REMARK   14  A    between atoms: C_25  and  N_37 
DOCKED: REMARK   15  A    between atoms: CB_27  and  CG_28 
DOCKED: REMARK   16  A    between atoms: CH_31  and  OH_32 
DOCKED: REMARK   17  A    between atoms: CH_31  and  CM_33 
DOCKED: USER                              x       y       z     vdW  Elec       q    Type
DOCKED: USER                           _______ _______ _______ _____ _____    ______ ____
DOCKED: ROOT
DOCKED: ATOM      1  CA  VAL J   3     -11.593   5.449   5.326 -0.22 +0.05    +0.180 C 
DOCKED: ENDROOT
DOCKED: BRANCH   1   2
DOCKED: ATOM      2  N   VAL J   3     -12.296   6.199   4.278 -0.08 -0.10    -0.346 N 
DOCKED: ATOM      3  H09 VAL J   3     -13.127   5.802   3.863 +0.06 +0.04    +0.163 HD
DOCKED: ATOM      4  C   VAL J   2     -11.874   7.376   3.861 -0.24 +0.07    +0.241 C 
DOCKED: ATOM      5  O   VAL J   2     -10.885   7.945   4.352 -0.82 -0.14    -0.271 OA
DOCKED: BRANCH   4   6
DOCKED: ATOM      6  CA  VAL J   2     -12.671   8.011   2.709 -0.18 +0.04    +0.180 C 
DOCKED: BRANCH   6   7
DOCKED: ATOM      7  N   VAL J   2     -12.588   7.035   1.629 -0.04 -0.08    -0.347 N 
DOCKED: ATOM      8  C   IVA J   1     -13.508   6.932   0.678 -0.05 +0.06    +0.218 C 
DOCKED: ATOM      9  O   IVA J   1     -14.524   7.633   0.699 -0.01 -0.08    -0.274 OA
DOCKED: ATOM     10  H10 VAL J   2     -11.796   6.408   1.604 -0.01 +0.03    +0.163 HD
DOCKED: BRANCH   8  11
DOCKED: ATOM     11  CA  IVA J   1     -13.272   5.918  -0.426 -0.06 +0.04    +0.106 C 
DOCKED: BRANCH  11  12
DOCKED: ATOM     12  CB  IVA J   1     -13.836   4.517  -0.120 -0.09 -0.00    -0.014 C 
DOCKED: ATOM     13  CG1 IVA J   1     -13.557   3.524  -1.239 -0.09 +0.00    +0.010 C 
DOCKED: ATOM     14  CG2 IVA J   1     -13.365   3.900   1.190 -0.13 +0.00    +0.010 C 
DOCKED: ENDBRANCH  11  12
DOCKED: ENDBRANCH   8  11
DOCKED: ENDBRANCH   6   7
DOCKED: BRANCH   6  15
DOCKED: ATOM     15  CB  VAL J   2     -14.125   8.310   3.183 -0.19 +0.00    +0.009 C 
DOCKED: ATOM     16  CG1 VAL J   2     -14.295   8.156   4.707 -0.26 +0.00    +0.012 C 
DOCKED: ATOM     17  CG2 VAL J   2     -14.568   9.714   2.745 -0.23 +0.00    +0.012 C 
DOCKED: ENDBRANCH   6  15
DOCKED: ENDBRANCH   4   6
DOCKED: ENDBRANCH   1   2
DOCKED: BRANCH   1  18
DOCKED: ATOM     18  C   VAL J   3     -10.303   4.904   4.720 -0.21 +0.05    +0.241 C 
DOCKED: ATOM     19  N   STA J   4      -9.181   4.974   5.461 -0.09 -0.03    -0.352 N 
DOCKED: ATOM     20  H09 STA J   4      -9.214   5.407   6.373 -0.47 -0.06    +0.163 HD
DOCKED: ATOM     21  O   VAL J   3     -10.344   4.388   3.609 -0.14 -0.04    -0.271 OA
DOCKED: BRANCH  19  22
DOCKED: ATOM     22  CA  STA J   4      -7.913   4.432   4.964 -0.31 +0.02    +0.113 C 
DOCKED: BRANCH  22  23
DOCKED: ATOM     23  CB  STA J   4      -8.135   3.132   4.179 -0.41 +0.01    +0.031 C 
DOCKED: BRANCH  23  24
DOCKED: ATOM     24  CG  STA J   4      -8.539   1.945   5.072 -0.44 -0.01    -0.021 C 
DOCKED: ATOM     25  CD1 STA J   4      -9.902   1.370   4.698 -0.46 +0.00    +0.009 C 
DOCKED: ATOM     26  CD2 STA J   4      -8.539   2.315   6.564 -0.41 +0.00    +0.009 C 
DOCKED: ENDBRANCH  23  24
DOCKED: ENDBRANCH  22  23
DOCKED: BRANCH  22  27
DOCKED: ATOM     27  CH  STA J   4      -7.148   5.561   4.224 -0.33 +0.04    +0.145 C 
DOCKED: BRANCH  27  28
DOCKED: ATOM     28  OH  STA J   4      -6.887   5.271   2.856 -0.33 -0.20    -0.393 OA
DOCKED: ATOM     29  H15 STA J   4      -7.113   6.033   2.318 +0.11 +0.08    +0.210 HD
DOCKED: ENDBRANCH  27  28
DOCKED: BRANCH  27  30
DOCKED: ATOM     30  CM  STA J   4      -7.905   6.872   4.319 -0.38 +0.02    +0.097 C 
DOCKED: BRANCH  30  31
DOCKED: ATOM     31  C   STA J   4      -8.689   7.218   3.067 -0.24 +0.10    +0.353 C 
DOCKED: BRANCH  31  32
DOCKED: ATOM     32  O   STA J   4      -9.276   6.216   2.266 -0.13 -0.06    -0.368 OA
DOCKED: ATOM     33  H03 STA J   4      -8.849   5.374   2.442 -0.10 +0.04    +0.212 HD
DOCKED: ENDBRANCH  31  32
DOCKED: BRANCH  31  34
DOCKED: ATOM     34  N   ALA J   5      -8.625   8.501   2.717 -0.37 +0.03    +0.107 N 
DOCKED: ATOM     35  H01 ALA J   5      -9.420   8.995   3.097 -0.26 +0.04    +0.316 HD
DOCKED: ATOM     36  H18 ALA J   5      -8.631   8.577   1.711 +0.18 +0.07    +0.316 HD
DOCKED: ENDBRANCH  31  34
DOCKED: ENDBRANCH  30  31
DOCKED: ENDBRANCH  27  30
DOCKED: ENDBRANCH  22  27
DOCKED: ENDBRANCH  19  22
DOCKED: ENDBRANCH   1  18
DOCKED: BRANCH   1  37
DOCKED: ATOM     37  CB  VAL J   3     -12.487   4.274   5.826 -0.34 +0.00    +0.009 C 
DOCKED: ATOM     38  CG1 VAL J   3     -13.728   4.766   6.551 -0.28 +0.00    +0.012 C 
DOCKED: ATOM     39  CG2 VAL J   3     -12.895   3.365   4.661 -0.29 +0.00    +0.012 C 
DOCKED: ENDBRANCH   1  37
DOCKED: TORSDOF 17
DOCKED: TER
DOCKED: ENDMDL
________________________________________________________________________________


	BEGINNING GENETIC ALGORITHM DOCKING 3 of 10
Run: 3 Seed: 1586718352 2131215162 [ Run 3 of 10 GA/GALS ]
Beginning LAMARCKIAN GENETIC ALGORITHM (LGA), with a maximum of 2500000 energy evaluations.

Final-Value: -15.947


	FINAL GENETIC ALGORITHM DOCKED STATE
	_______________________________________________


Detailed state:  trans -9.703 7.468 4.065 quatxyzw 0.739981 -0.248848 0.555422 -0.286372 center -9.499 5.878 4.011 ntor 17 34.4624 -35.6063 -180.0000 15.6186 -110.9130 -108.8322 -111.2733 -145.4340 -79.3268 -26.7548 111.1358 -151.5767 176.5319 -93.9870 -26.4938 -70.8621 -2.7031
State:	 -9.703   7.468   4.065   0.772 -0.260  0.580 -146.718     34.46  -35.61 -180.00   15.62 -110.91 -108.83 -111.27 -145.43  -79.33  -26.75  111.14 -151.58  176.53  -93.99  -26.49  -70.86   -2.70

DOCKED: MODEL        3
DOCKED: USER    Run = 3
DOCKED: USER    DPF = dock.dpf
DOCKED: USER  
DOCKED: USER    Estimated Free Energy of Binding    =   -5.36 kcal/mol  [=(1)+(2)+(3)-(4)]
DOCKED: USER    Estimated Inhibition Constant, Ki   =  117.53 uM (micromolar)  [Temperature = 298.15 K]
DOCKED: USER    
DOCKED: USER    (1) Final Intermolecular Energy     =  -10.43 kcal/mol
DOCKED: USER        vdW + Hbond + desolv Energy     =  -10.31 kcal/mol
DOCKED: USER        Electrostatic Energy            =   -0.13 kcal/mol
DOCKED: USER    (2) Final Total Internal Energy     =   -5.52 kcal/mol
DOCKED: USER    (3) Torsional Free Energy           =   +5.07 kcal/mol
DOCKED: USER    (4) Unbound System's Energy  [=(2)] =   -5.52 kcal/mol
DOCKED: USER    
DOCKED: USER    
DOCKED: USER    NEWDPF move lig3sm1_fixed.pdbqt
DOCKED: USER    NEWDPF about -9.499000 5.878000 4.011000
DOCKED: USER    NEWDPF tran0 -9.703229 7.468440 4.065245
DOCKED: USER    NEWDPF quaternion0 0.739981 -0.248848 0.555422 -0.286372
DOCKED: USER    NEWDPF axisangle0 0.772327 -0.259726 0.579701 -146.718288
DOCKED: USER    NEWDPF quat0 0.772327 -0.259726 0.579701 -146.718288
DOCKED: USER    NEWDPF dihe0 34.46 -35.61 -180.00 15.62 -110.91 -108.83 -111.27 -145.43 -79.33 -26.75 111.14 -151.58 176.53 -93.99 -26.49 -70.86 -2.70 
DOCKED: USER  keepresnum = 1 
DOCKED: USER  
DOCKED: REMARK  17 active torsions:
DOCKED: REMARK  status: ('A' for Active; 'I' for Inactive)
DOCKED: REMARK    1  A    between atoms: CA_1  and  C_2 
DOCKED: REMARK    2  A    between atoms: CA_1  and  CB_4 
DOCKED: REMARK       I    between atoms: C_2  and  N_7 
DOCKED: REMARK    3  A    between atoms: N_7  and  CA_8 
DOCKED: REMARK    4  A    between atoms: CA_8  and  C_9 
DOCKED: REMARK    5  A    between atoms: CA_8  and  CB_11 
DOCKED: REMARK       I    between atoms: C_9  and  N_15 
DOCKED: REMARK    6  A    between atoms: N_15  and  CA_16 
DOCKED: REMARK    7  A    between atoms: CA_16  and  C_17 
DOCKED: REMARK    8  A    between atoms: CA_16  and  CB_19 
DOCKED: REMARK       I    between atoms: C_17  and  N_23 
DOCKED: REMARK    9  A    between atoms: N_23  and  CA_24 
DOCKED: REMARK   10  A    between atoms: CA_24  and  CB_27 
DOCKED: REMARK   11  A    between atoms: CA_24  and  CH_31 
DOCKED: REMARK   12  A    between atoms: C_25  and  O_26 
DOCKED: REMARK   13  A    between atoms: C_25  and  CM_33 
DOCKED: REMARK   14  A    between atoms: C_25  and  N_37 
DOCKED: REMARK   15  A    between atoms: CB_27  and  CG_28 
DOCKED: REMARK   16  A    between atoms: CH_31  and  OH_32 
DOCKED: REMARK   17  A    between atoms: CH_31  and  CM_33 
DOCKED: USER                              x       y       z     vdW  Elec       q    Type
DOCKED: USER                           _______ _______ _______ _____ _____    ______ ____
DOCKED: ROOT
DOCKED: ATOM      1  CA  VAL J   3      -9.093   7.796   3.884 -0.26 +0.07    +0.180 C 
DOCKED: ENDROOT
DOCKED: BRANCH   1   2
DOCKED: ATOM      2  N   VAL J   3      -8.294   6.969   4.797 -0.20 -0.08    -0.346 N 
DOCKED: ATOM      3  H09 VAL J   3      -8.768   6.385   5.472 -0.39 +0.00    +0.163 HD
DOCKED: ATOM      4  C   VAL J   2      -6.977   6.966   4.762 -0.16 +0.05    +0.241 C 
DOCKED: ATOM      5  O   VAL J   2      -6.327   7.625   3.934 -0.21 -0.07    -0.271 OA
DOCKED: BRANCH   4   6
DOCKED: ATOM      6  CA  VAL J   2      -6.274   6.104   5.825 -0.28 +0.02    +0.180 C 
DOCKED: BRANCH   6   7
DOCKED: ATOM      7  N   VAL J   2      -7.233   5.048   6.127 -0.08 +0.00    -0.347 N 
DOCKED: ATOM      8  C   IVA J   1      -7.528   4.077   5.272 -0.25 +0.03    +0.218 C 
DOCKED: ATOM      9  O   IVA J   1      -7.039   4.058   4.139 -0.84 -0.14    -0.274 OA
DOCKED: ATOM     10  H10 VAL J   2      -7.693   5.056   7.026 -0.47 -0.04    +0.163 HD
DOCKED: BRANCH   8  11
DOCKED: ATOM     11  CA  IVA J   1      -8.494   3.000   5.731 -0.32 +0.02    +0.106 C 
DOCKED: BRANCH  11  12
DOCKED: ATOM     12  CB  IVA J   1      -9.755   2.876   4.854 -0.37 -0.00    -0.014 C 
DOCKED: ATOM     13  CG1 IVA J   1      -9.873   1.505   4.202 -0.50 +0.01    +0.010 C 
DOCKED: ATOM     14  CG2 IVA J   1     -11.070   3.178   5.561 -0.37 +0.00    +0.010 C 
DOCKED: ENDBRANCH  11  12
DOCKED: ENDBRANCH   8  11
DOCKED: ENDBRANCH   6   7
DOCKED: BRANCH   6  15
DOCKED: ATOM     15  CB  VAL J   2      -4.917   5.585   5.261 -0.44 +0.00    +0.009 C 
DOCKED: ATOM     16  CG1 VAL J   2      -3.932   6.728   4.943 -0.50 +0.00    +0.012 C 
DOCKED: ATOM     17  CG2 VAL J   2      -4.266   4.586   6.230 -0.40 -0.00    +0.012 C 
DOCKED: ENDBRANCH   6  15
DOCKED: ENDBRANCH   4   6
DOCKED: ENDBRANCH   1   2
DOCKED: BRANCH   1  18
DOCKED: ATOM     18  C   VAL J   3     -10.534   7.297   3.948 -0.24 +0.09    +0.241 C 
DOCKED: ATOM     19  N   STA J   4     -11.519   8.215   3.945 -0.21 -0.11    -0.352 N 
DOCKED: ATOM     20  H09 STA J   4     -11.283   9.196   3.933 -0.34 +0.02    +0.163 HD
DOCKED: ATOM     21  O   VAL J   3     -10.741   6.088   3.955 -0.21 -0.07    -0.271 OA
DOCKED: BRANCH  19  22
DOCKED: ATOM     22  CA  STA J   4     -12.928   7.810   3.960 -0.27 +0.03    +0.113 C 
DOCKED: BRANCH  22  23
DOCKED: ATOM     23  CB  STA J   4     -13.680   8.462   5.128 -0.29 +0.01    +0.031 C 
DOCKED: BRANCH  23  24
DOCKED: ATOM     24  CG  STA J   4     -14.736   7.539   5.762 -0.24 -0.01    -0.021 C 
DOCKED: ATOM     25  CD1 STA J   4     -15.622   8.268   6.768 -0.26 +0.00    +0.009 C 
DOCKED: ATOM     26  CD2 STA J   4     -14.102   6.315   6.442 -0.08 +0.00    +0.009 C 
DOCKED: ENDBRANCH  23  24
DOCKED: ENDBRANCH  22  23
DOCKED: BRANCH  22  27
DOCKED: ATOM     27  CH  STA J   4     -13.523   8.038   2.545 -0.13 +0.04    +0.145 C 
DOCKED: BRANCH  27  28
DOCKED: ATOM     28  OH  STA J   4     -12.667   8.774   1.679 -0.08 -0.09    -0.393 OA
DOCKED: ATOM     29  H15 STA J   4     -12.302   8.186   1.013 +0.06 +0.05    +0.210 HD
DOCKED: ENDBRANCH  27  28
DOCKED: BRANCH  27  30
DOCKED: ATOM     30  CM  STA J   4     -13.874   6.716   1.892 -0.06 +0.02    +0.097 C 
DOCKED: BRANCH  30  31
DOCKED: ATOM     31  C   STA J   4     -12.674   5.961   1.352 -0.05 +0.07    +0.353 C 
DOCKED: BRANCH  31  32
DOCKED: ATOM     32  O   STA J   4     -12.202   6.172   0.040 -0.43 -0.12    -0.368 OA
DOCKED: ATOM     33  H03 STA J   4     -12.071   7.113  -0.106 +0.03 +0.06    +0.212 HD
DOCKED: ENDBRANCH  31  32
DOCKED: BRANCH  31  34
DOCKED: ATOM     34  N   ALA J   5     -12.233   4.990   2.149 -0.03 +0.01    +0.107 N 
DOCKED: ATOM     35  H01 ALA J   5     -12.515   5.180   3.101 +0.08 +0.07    +0.316 HD
DOCKED: ATOM     36  H18 ALA J   5     -11.225   4.945   2.099 -0.46 -0.08    +0.316 HD
DOCKED: ENDBRANCH  31  34
DOCKED: ENDBRANCH  30  31
DOCKED: ENDBRANCH  27  30
DOCKED: ENDBRANCH  22  27
DOCKED: ENDBRANCH  19  22
DOCKED: ENDBRANCH   1  18
DOCKED: BRANCH   1  37
DOCKED: ATOM     37  CB  VAL J   3      -8.545   7.662   2.431 -0.44 +0.00    +0.009 C 
DOCKED: ATOM     38  CG1 VAL J   3      -8.526   6.219   1.957 -0.22 +0.00    +0.012 C 
DOCKED: ATOM     39  CG2 VAL J   3      -9.368   8.515   1.457 -0.38 +0.00    +0.012 C 
DOCKED: ENDBRANCH   1  37
DOCKED: TORSDOF 17
DOCKED: TER
DOCKED: ENDMDL
________________________________________________________________________________


	BEGINNING GENETIC ALGORITHM DOCKING 4 of 10
Run: 4 Seed: 2059638426 896510449 [ Run 4 of 10 GA/GALS ]
Beginning LAMARCKIAN GENETIC ALGORITHM (LGA), with a maximum of 2500000 energy evaluations.

Final-Value: -15.519


	FINAL GENETIC ALGORITHM DOCKED STATE
	_______________________________________________


Detailed state:  trans -9.496 6.446 3.817 quatxyzw -0.781095 0.310689 -0.397150 0.368287 center -9.499 5.878 4.011 ntor 17 -82.9225 180.0000 -56.1572 -100.5316 -41.4719 67.7111 8.5044 175.2747 3.7689 170.5244 177.7823 49.9966 -179.9285 -83.0335 -49.3351 163.6795 122.9864
State:	 -9.496   6.446   3.817  -0.840  0.334 -0.427 136.780    -82.92  180.00  -56.16 -100.53  -41.47   67.71    8.50  175.27    3.77  170.52  177.78   50.00 -179.93  -83.03  -49.34  163.68  122.99

DOCKED: MODEL        4
DOCKED: USER    Run = 4
DOCKED: USER    DPF = dock.dpf
DOCKED: USER  
DOCKED: USER    Estimated Free Energy of Binding    =   -3.99 kcal/mol  [=(1)+(2)+(3)-(4)]
DOCKED: USER    Estimated Inhibition Constant, Ki   =    1.19 mM (millimolar)  [Temperature = 298.15 K]
DOCKED: USER    
DOCKED: USER    (1) Final Intermolecular Energy     =   -9.06 kcal/mol
DOCKED: USER        vdW + Hbond + desolv Energy     =   -9.20 kcal/mol
DOCKED: USER        Electrostatic Energy            =   +0.14 kcal/mol
DOCKED: USER    (2) Final Total Internal Energy     =   -6.46 kcal/mol
DOCKED: USER    (3) Torsional Free Energy           =   +5.07 kcal/mol
DOCKED: USER    (4) Unbound System's Energy  [=(2)] =   -6.46 kcal/mol
DOCKED: USER    
DOCKED: USER    
DOCKED: USER    NEWDPF move lig3sm1_fixed.pdbqt
DOCKED: USER    NEWDPF about -9.499000 5.878000 4.011000
DOCKED: USER    NEWDPF tran0 -9.496171 6.446464 3.816669
DOCKED: USER    NEWDPF quaternion0 -0.781095 0.310689 -0.397150 0.368287
DOCKED: USER    NEWDPF axisangle0 -0.840147 0.334178 -0.427175 136.780032
DOCKED: USER    NEWDPF quat0 -0.840147 0.334178 -0.427175 136.780032
DOCKED: USER    NEWDPF dihe0 -82.92 180.00 -56.16 -100.53 -41.47 67.71 8.50 175.27 3.77 170.52 177.78 50.00 -179.93 -83.03 -49.34 163.68 122.99 
DOCKED: USER  keepresnum = 1 
DOCKED: USER  
DOCKED: REMARK  17 active torsions:
DOCKED: REMARK  status: ('A' for Active; 'I' for Inactive)
DOCKED: REMARK    1  A    between atoms: CA_1  and  C_2 
DOCKED: REMARK    2  A    between atoms: CA_1  and  CB_4 
DOCKED: REMARK       I    between atoms: C_2  and  N_7 
DOCKED: REMARK    3  A    between atoms: N_7  and  CA_8 
DOCKED: REMARK    4  A    between atoms: CA_8  and  C_9 
DOCKED: REMARK    5  A    between atoms: CA_8  and  CB_11 
DOCKED: REMARK       I    between atoms: C_9  and  N_15 
DOCKED: REMARK    6  A    between atoms: N_15  and  CA_16 
DOCKED: REMARK    7  A    between atoms: CA_16  and  C_17 
DOCKED: REMARK    8  A    between atoms: CA_16  and  CB_19 
DOCKED: REMARK       I    between atoms: C_17  and  N_23 
DOCKED: REMARK    9  A    between atoms: N_23  and  CA_24 
DOCKED: REMARK   10  A    between atoms: CA_24  and  CB_27 
DOCKED: REMARK   11  A    between atoms: CA_24  and  CH_31 
DOCKED: REMARK   12  A    between atoms: C_25  and  O_26 
DOCKED: REMARK   13  A    between atoms: C_25  and  CM_33 
DOCKED: REMARK   14  A    between atoms: C_25  and  N_37 
DOCKED: REMARK   15  A    between atoms: CB_27  and  CG_28 
DOCKED: REMARK   16  A    between atoms: CH_31  and  OH_32 
DOCKED: REMARK   17  A    between atoms: CH_31  and  CM_33 
DOCKED: USER                              x       y       z     vdW  Elec       q    Type
DOCKED: USER                           _______ _______ _______ _____ _____    ______ ____
DOCKED: ROOT
DOCKED: ATOM      1  CA  VAL J   3      -8.896   6.632   3.473 -0.31 +0.05    +0.180 C 
DOCKED: ENDROOT
DOCKED: BRANCH   1   2
DOCKED: ATOM      2  N   VAL J   3      -8.116   5.562   4.108 -0.14 -0.09    -0.346 N 
DOCKED: ATOM      3  H09 VAL J   3      -7.189   5.769   4.453 +0.09 +0.04    +0.163 HD
DOCKED: ATOM      4  C   VAL J   2      -8.589   4.340   4.241 -0.23 +0.07    +0.241 C 
DOCKED: ATOM      5  O   VAL J   2      -9.734   4.021   3.879 -0.17 -0.06    -0.271 OA
DOCKED: BRANCH   4   6
DOCKED: ATOM      6  CA  VAL J   2      -7.633   3.308   4.863 -0.28 +0.04    +0.180 C 
DOCKED: BRANCH   6   7
DOCKED: ATOM      7  N   VAL J   2      -6.932   4.047   5.907 -0.13 -0.01    -0.347 N 
DOCKED: ATOM      8  C   IVA J   1      -5.819   4.733   5.680 -0.26 +0.01    +0.218 C 
DOCKED: ATOM      9  O   IVA J   1      -5.285   4.727   4.567 -0.48 -0.07    -0.274 OA
DOCKED: ATOM     10  H10 VAL J   2      -7.310   4.036   6.843 +0.07 -0.01    +0.163 HD
DOCKED: BRANCH   8  11
DOCKED: ATOM     11  CA  IVA J   1      -5.222   5.513   6.837 -0.32 +0.00    +0.106 C 
DOCKED: BRANCH  11  12
DOCKED: ATOM     12  CB  IVA J   1      -4.363   4.659   7.790 -0.36 +0.00    -0.014 C 
DOCKED: ATOM     13  CG1 IVA J   1      -4.931   4.619   9.201 -0.38 +0.00    +0.010 C 
DOCKED: ATOM     14  CG2 IVA J   1      -4.119   3.226   7.336 -0.42 -0.01    +0.010 C 
DOCKED: ENDBRANCH  11  12
DOCKED: ENDBRANCH   8  11
DOCKED: ENDBRANCH   6   7
DOCKED: BRANCH   6  15
DOCKED: ATOM     15  CB  VAL J   2      -8.450   2.090   5.390 -0.41 +0.00    +0.009 C 
DOCKED: ATOM     16  CG1 VAL J   2      -9.592   2.508   6.337 -0.42 +0.00    +0.012 C 
DOCKED: ATOM     17  CG2 VAL J   2      -9.013   1.262   4.225 -0.52 +0.01    +0.012 C 
DOCKED: ENDBRANCH   6  15
DOCKED: ENDBRANCH   4   6
DOCKED: ENDBRANCH   1   2
DOCKED: BRANCH   1  18
DOCKED: ATOM     18  C   VAL J   3     -10.342   6.490   3.939 -0.25 +0.07    +0.241 C 
DOCKED: ATOM     19  N   STA J   4     -11.191   5.797   3.157 -0.06 -0.06    -0.352 N 
DOCKED: ATOM     20  H09 STA J   4     -10.863   5.420   2.280 -0.40 -0.02    +0.163 HD
DOCKED: ATOM     21  O   VAL J   3     -10.665   6.971   5.020 -0.66 -0.13    -0.271 OA
DOCKED: BRANCH  19  22
DOCKED: ATOM     22  CA  STA J   4     -12.584   5.581   3.560 -0.14 +0.03    +0.113 C 
DOCKED: BRANCH  22  23
DOCKED: ATOM     23  CB  STA J   4     -13.532   6.525   2.808 -0.10 +0.01    +0.031 C 
DOCKED: BRANCH  23  24
DOCKED: ATOM     24  CG  STA J   4     -13.230   8.014   3.058 -0.23 -0.01    -0.021 C 
DOCKED: ATOM     25  CD1 STA J   4     -14.190   8.644   4.063 -0.25 +0.00    +0.009 C 
DOCKED: ATOM     26  CD2 STA J   4     -13.249   8.835   1.759 -0.20 +0.00    +0.009 C 
DOCKED: ENDBRANCH  23  24
DOCKED: ENDBRANCH  22  23
DOCKED: BRANCH  22  27
DOCKED: ATOM     27  CH  STA J   4     -12.899   4.065   3.459 -0.15 +0.04    +0.145 C 
DOCKED: BRANCH  27  28
DOCKED: ATOM     28  OH  STA J   4     -11.850   3.303   2.874 -0.09 -0.08    -0.393 OA
DOCKED: ATOM     29  H15 STA J   4     -11.188   3.895   2.508 -0.47 -0.03    +0.210 HD
DOCKED: ENDBRANCH  27  28
DOCKED: BRANCH  27  30
DOCKED: ATOM     30  CM  STA J   4     -13.227   3.493   4.824 -0.25 +0.03    +0.097 C 
DOCKED: BRANCH  30  31
DOCKED: ATOM     31  C   STA J   4     -12.938   4.443   5.972 -0.15 +0.12    +0.353 C 
DOCKED: BRANCH  31  32
DOCKED: ATOM     32  O   STA J   4     -13.979   5.057   6.698 -0.15 -0.13    -0.368 OA
DOCKED: ATOM     33  H03 STA J   4     -14.179   5.912   6.311 +0.08 +0.08    +0.212 HD
DOCKED: ENDBRANCH  31  32
DOCKED: BRANCH  31  34
DOCKED: ATOM     34  N   ALA J   5     -11.653   4.761   6.109 -0.30 +0.03    +0.107 N 
DOCKED: ATOM     35  H01 ALA J   5     -11.575   5.670   6.543 +0.14 +0.12    +0.316 HD
DOCKED: ATOM     36  H18 ALA J   5     -11.212   4.783   5.201 +0.16 +0.08    +0.316 HD
DOCKED: ENDBRANCH  31  34
DOCKED: ENDBRANCH  30  31
DOCKED: ENDBRANCH  27  30
DOCKED: ENDBRANCH  22  27
DOCKED: ENDBRANCH  19  22
DOCKED: ENDBRANCH   1  18
DOCKED: BRANCH   1  37
DOCKED: ATOM     37  CB  VAL J   3      -8.820   6.494   1.922 -0.28 +0.00    +0.009 C 
DOCKED: ATOM     38  CG1 VAL J   3      -9.677   7.529   1.212 -0.32 +0.00    +0.012 C 
DOCKED: ATOM     39  CG2 VAL J   3      -7.370   6.603   1.435 -0.44 +0.00    +0.012 C 
DOCKED: ENDBRANCH   1  37
DOCKED: TORSDOF 17
DOCKED: TER
DOCKED: ENDMDL
________________________________________________________________________________


	BEGINNING GENETIC ALGORITHM DOCKING 5 of 10
Run: 5 Seed: 1242931454 146735519 [ Run 5 of 10 GA/GALS ]
Beginning LAMARCKIAN GENETIC ALGORITHM (LGA), with a maximum of 2500000 energy evaluations.

Final-Value: -14.817


	FINAL GENETIC ALGORITHM DOCKED STATE
	_______________________________________________


Detailed state:  trans -8.866 4.358 4.672 quatxyzw 0.498933 0.767302 -0.401875 0.028457 center -9.499 5.878 4.011 ntor 17 180.0000 -142.2899 -2.5689 -3.8680 -136.0498 66.3811 -122.8713 0.2682 -36.9131 -25.6972 -99.9128 -11.4353 71.3687 -46.1457 155.1459 6.3409 -44.9347
State:	 -8.866   4.358   4.672   0.499  0.768 -0.402 176.739    180.00 -142.29   -2.57   -3.87 -136.05   66.38 -122.87    0.27  -36.91  -25.70  -99.91  -11.44   71.37  -46.15  155.15    6.34  -44.93

DOCKED: MODEL        5
DOCKED: USER    Run = 5
DOCKED: USER    DPF = dock.dpf
DOCKED: USER  
DOCKED: USER    Estimated Free Energy of Binding    =   -6.07 kcal/mol  [=(1)+(2)+(3)-(4)]
DOCKED: USER    Estimated Inhibition Constant, Ki   =   35.29 uM (micromolar)  [Temperature = 298.15 K]
DOCKED: USER    
DOCKED: USER    (1) Final Intermolecular Energy     =  -11.15 kcal/mol
DOCKED: USER        vdW + Hbond + desolv Energy     =  -11.05 kcal/mol
DOCKED: USER        Electrostatic Energy            =   -0.10 kcal/mol
DOCKED: USER    (2) Final Total Internal Energy     =   -3.67 kcal/mol
DOCKED: USER    (3) Torsional Free Energy           =   +5.07 kcal/mol
DOCKED: USER    (4) Unbound System's Energy  [=(2)] =   -3.67 kcal/mol
DOCKED: USER    
DOCKED: USER    
DOCKED: USER    NEWDPF move lig3sm1_fixed.pdbqt
DOCKED: USER    NEWDPF about -9.499000 5.878000 4.011000
DOCKED: USER    NEWDPF tran0 -8.866402 4.357630 4.672150
DOCKED: USER    NEWDPF quaternion0 0.498933 0.767302 -0.401875 0.028457
DOCKED: USER    NEWDPF axisangle0 0.499135 0.767613 -0.402038 176.738588
DOCKED: USER    NEWDPF quat0 0.499135 0.767613 -0.402038 176.738588
DOCKED: USER    NEWDPF dihe0 180.00 -142.29 -2.57 -3.87 -136.05 66.38 -122.87 0.27 -36.91 -25.70 -99.91 -11.44 71.37 -46.15 155.15 6.34 -44.93 
DOCKED: USER  keepresnum = 1 
DOCKED: USER  
DOCKED: REMARK  17 active torsions:
DOCKED: REMARK  status: ('A' for Active; 'I' for Inactive)
DOCKED: REMARK    1  A    between atoms: CA_1  and  C_2 
DOCKED: REMARK    2  A    between atoms: CA_1  and  CB_4 
DOCKED: REMARK       I    between atoms: C_2  and  N_7 
DOCKED: REMARK    3  A    between atoms: N_7  and  CA_8 
DOCKED: REMARK    4  A    between atoms: CA_8  and  C_9 
DOCKED: REMARK    5  A    between atoms: CA_8  and  CB_11 
DOCKED: REMARK       I    between atoms: C_9  and  N_15 
DOCKED: REMARK    6  A    between atoms: N_15  and  CA_16 
DOCKED: REMARK    7  A    between atoms: CA_16  and  C_17 
DOCKED: REMARK    8  A    between atoms: CA_16  and  CB_19 
DOCKED: REMARK       I    between atoms: C_17  and  N_23 
DOCKED: REMARK    9  A    between atoms: N_23  and  CA_24 
DOCKED: REMARK   10  A    between atoms: CA_24  and  CB_27 
DOCKED: REMARK   11  A    between atoms: CA_24  and  CH_31 
DOCKED: REMARK   12  A    between atoms: C_25  and  O_26 
DOCKED: REMARK   13  A    between atoms: C_25  and  CM_33 
DOCKED: REMARK   14  A    between atoms: C_25  and  N_37 
DOCKED: REMARK   15  A    between atoms: CB_27  and  CG_28 
DOCKED: REMARK   16  A    between atoms: CH_31  and  OH_32 
DOCKED: REMARK   17  A    between atoms: CH_31  and  CM_33 
DOCKED: USER                              x       y       z     vdW  Elec       q    Type
DOCKED: USER                           _______ _______ _______ _____ _____    ______ ____
DOCKED: ROOT
DOCKED: ATOM      1  CA  VAL J   3      -9.454   4.078   4.970 -0.24 +0.04    +0.180 C 
DOCKED: ENDROOT
DOCKED: BRANCH   1   2
DOCKED: ATOM      2  N   VAL J   3     -10.299   4.457   3.831 -0.07 -0.06    -0.346 N 
DOCKED: ATOM      3  H09 VAL J   3     -10.140   4.019   2.934 -0.48 -0.01    +0.163 HD
DOCKED: ATOM      4  C   VAL J   2     -11.260   5.351   3.944 -0.16 +0.05    +0.241 C 
DOCKED: ATOM      5  O   VAL J   2     -11.542   5.900   5.022 -0.23 -0.08    -0.271 OA
DOCKED: BRANCH   4   6
DOCKED: ATOM      6  CA  VAL J   2     -12.017   5.698   2.650 -0.09 +0.03    +0.180 C 
DOCKED: BRANCH   6   7
DOCKED: ATOM      7  N   VAL J   2     -12.892   4.554   2.424 -0.05 -0.07    -0.347 N 
DOCKED: ATOM      8  C   IVA J   1     -13.256   4.153   1.212 -0.07 +0.05    +0.218 C 
DOCKED: ATOM      9  O   IVA J   1     -12.911   4.780   0.206 -0.46 -0.08    -0.274 OA
DOCKED: ATOM     10  H10 VAL J   2     -13.236   4.043   3.225 +0.05 +0.04    +0.163 HD
DOCKED: BRANCH   8  11
DOCKED: ATOM     11  CA  IVA J   1     -14.117   2.908   1.109 -0.11 +0.03    +0.106 C 
DOCKED: BRANCH  11  12
DOCKED: ATOM     12  CB  IVA J   1     -13.316   1.608   0.905 -0.21 -0.01    -0.014 C 
DOCKED: ATOM     13  CG1 IVA J   1     -12.560   1.595  -0.417 -0.19 +0.00    +0.010 C 
DOCKED: ATOM     14  CG2 IVA J   1     -12.331   1.272   2.017 -0.33 +0.01    +0.010 C 
DOCKED: ENDBRANCH  11  12
DOCKED: ENDBRANCH   8  11
DOCKED: ENDBRANCH   6   7
DOCKED: BRANCH   6  15
DOCKED: ATOM     15  CB  VAL J   2     -12.774   7.048   2.834 -0.18 +0.00    +0.009 C 
DOCKED: ATOM     16  CG1 VAL J   2     -11.916   8.117   3.539 -0.38 +0.00    +0.012 C 
DOCKED: ATOM     17  CG2 VAL J   2     -13.276   7.584   1.485 -0.12 +0.00    +0.012 C 
DOCKED: ENDBRANCH   6  15
DOCKED: ENDBRANCH   4   6
DOCKED: ENDBRANCH   1   2
DOCKED: BRANCH   1  18
DOCKED: ATOM     18  C   VAL J   3      -8.019   4.472   4.633 -0.24 +0.06    +0.241 C 
DOCKED: ATOM     19  N   STA J   4      -7.559   5.642   5.115 -0.13 -0.05    -0.352 N 
DOCKED: ATOM     20  H09 STA J   4      -8.174   6.235   5.652 -0.30 -0.01    +0.163 HD
DOCKED: ATOM     21  O   VAL J   3      -7.330   3.697   3.980 -0.77 -0.15    -0.271 OA
DOCKED: BRANCH  19  22
DOCKED: ATOM     22  CA  STA J   4      -6.177   6.068   4.871 -0.35 +0.02    +0.113 C 
DOCKED: BRANCH  22  23
DOCKED: ATOM     23  CB  STA J   4      -5.178   4.984   5.296 -0.40 +0.00    +0.031 C 
DOCKED: BRANCH  23  24
DOCKED: ATOM     24  CG  STA J   4      -4.527   5.261   6.663 -0.38 +0.00    -0.021 C 
DOCKED: ATOM     25  CD1 STA J   4      -3.853   4.024   7.251 -0.41 -0.00    +0.009 C 
DOCKED: ATOM     26  CD2 STA J   4      -5.532   5.820   7.682 -0.40 +0.00    +0.009 C 
DOCKED: ENDBRANCH  23  24
DOCKED: ENDBRANCH  22  23
DOCKED: BRANCH  22  27
DOCKED: ATOM     27  CH  STA J   4      -6.066   6.571   3.407 -0.41 +0.04    +0.145 C 
DOCKED: BRANCH  27  28
DOCKED: ATOM     28  OH  STA J   4      -5.210   5.776   2.595 -0.80 -0.18    -0.393 OA
DOCKED: ATOM     29  H15 STA J   4      -4.391   6.251   2.431 -0.21 +0.03    +0.210 HD
DOCKED: ENDBRANCH  27  28
DOCKED: BRANCH  27  30
DOCKED: ATOM     30  CM  STA J   4      -7.435   6.645   2.760 -0.40 +0.03    +0.097 C 
DOCKED: BRANCH  30  31
DOCKED: ATOM     31  C   STA J   4      -8.297   7.782   3.278 -0.24 +0.10    +0.353 C 
DOCKED: BRANCH  31  32
DOCKED: ATOM     32  O   STA J   4      -9.119   7.622   4.413 -0.60 -0.16    -0.368 OA
DOCKED: ATOM     33  H03 STA J   4      -9.703   6.871   4.283 +0.10 +0.07    +0.212 HD
DOCKED: ENDBRANCH  31  32
DOCKED: BRANCH  31  34
DOCKED: ATOM     34  N   ALA J   5      -8.330   8.850   2.485 -0.38 +0.03    +0.107 N 
DOCKED: ATOM     35  H01 ALA J   5      -9.209   9.333   2.606 -0.31 +0.01    +0.316 HD
DOCKED: ATOM     36  H18 ALA J   5      -8.237   8.558   1.523 +0.20 +0.08    +0.316 HD
DOCKED: ENDBRANCH  31  34
DOCKED: ENDBRANCH  30  31
DOCKED: ENDBRANCH  27  30
DOCKED: ENDBRANCH  22  27
DOCKED: ENDBRANCH  19  22
DOCKED: ENDBRANCH   1  18
DOCKED: BRANCH   1  37
DOCKED: ATOM     37  CB  VAL J   3      -9.543   2.540   5.208 -0.40 +0.00    +0.009 C 
DOCKED: ATOM     38  CG1 VAL J   3      -9.431   1.753   3.913 -0.50 +0.01    +0.012 C 
DOCKED: ATOM     39  CG2 VAL J   3      -8.461   2.075   6.190 -0.40 +0.00    +0.012 C 
DOCKED: ENDBRANCH   1  37
DOCKED: TORSDOF 17
DOCKED: TER
DOCKED: ENDMDL
________________________________________________________________________________


	BEGINNING GENETIC ALGORITHM DOCKING 6 of 10
Run: 6 Seed: 76390205 1030677969 [ Run 6 of 10 GA/GALS ]
Beginning LAMARCKIAN GENETIC ALGORITHM (LGA), with a maximum of 2500000 energy evaluations.

Final-Value: -13.482


	FINAL GENETIC ALGORITHM DOCKED STATE
	_______________________________________________


Detailed state:  trans -6.867 5.241 3.930 quatxyzw 0.298350 -0.766173 -0.452668 -0.345047 center -9.499 5.878 4.011 ntor 17 -159.2607 -148.3822 -169.2880 0.5181 -156.0169 13.7407 -122.4807 53.4334 -16.9925 -179.7157 92.2233 100.7883 -155.8827 180.0000 -179.6123 98.6962 -34.2800
State:	 -6.867   5.241   3.930   0.318 -0.816 -0.482 -139.631   -159.26 -148.38 -169.29    0.52 -156.02   13.74 -122.48   53.43  -16.99 -179.72   92.22  100.79 -155.88  180.00 -179.61   98.70  -34.28

DOCKED: MODEL        6
DOCKED: USER    Run = 6
DOCKED: USER    DPF = dock.dpf
DOCKED: USER  
DOCKED: USER    Estimated Free Energy of Binding    =   -5.01 kcal/mol  [=(1)+(2)+(3)-(4)]
DOCKED: USER    Estimated Inhibition Constant, Ki   =  211.31 uM (micromolar)  [Temperature = 298.15 K]
DOCKED: USER    
DOCKED: USER    (1) Final Intermolecular Energy     =  -10.08 kcal/mol
DOCKED: USER        vdW + Hbond + desolv Energy     =   -9.57 kcal/mol
DOCKED: USER        Electrostatic Energy            =   -0.52 kcal/mol
DOCKED: USER    (2) Final Total Internal Energy     =   -3.40 kcal/mol
DOCKED: USER    (3) Torsional Free Energy           =   +5.07 kcal/mol
DOCKED: USER    (4) Unbound System's Energy  [=(2)] =   -3.40 kcal/mol
DOCKED: USER    
DOCKED: USER    
DOCKED: USER    NEWDPF move lig3sm1_fixed.pdbqt
DOCKED: USER    NEWDPF about -9.499000 5.878000 4.011000
DOCKED: USER    NEWDPF tran0 -6.867329 5.240748 3.929802
DOCKED: USER    NEWDPF quaternion0 0.298350 -0.766173 -0.452668 -0.345047
DOCKED: USER    NEWDPF axisangle0 0.317872 -0.816306 -0.482288 -139.630697
DOCKED: USER    NEWDPF quat0 0.317872 -0.816306 -0.482288 -139.630697
DOCKED: USER    NEWDPF dihe0 -159.26 -148.38 -169.29 0.52 -156.02 13.74 -122.48 53.43 -16.99 -179.72 92.22 100.79 -155.88 180.00 -179.61 98.70 -34.28 
DOCKED: USER  keepresnum = 1 
DOCKED: USER  
DOCKED: REMARK  17 active torsions:
DOCKED: REMARK  status: ('A' for Active; 'I' for Inactive)
DOCKED: REMARK    1  A    between atoms: CA_1  and  C_2 
DOCKED: REMARK    2  A    between atoms: CA_1  and  CB_4 
DOCKED: REMARK       I    between atoms: C_2  and  N_7 
DOCKED: REMARK    3  A    between atoms: N_7  and  CA_8 
DOCKED: REMARK    4  A    between atoms: CA_8  and  C_9 
DOCKED: REMARK    5  A    between atoms: CA_8  and  CB_11 
DOCKED: REMARK       I    between atoms: C_9  and  N_15 
DOCKED: REMARK    6  A    between atoms: N_15  and  CA_16 
DOCKED: REMARK    7  A    between atoms: CA_16  and  C_17 
DOCKED: REMARK    8  A    between atoms: CA_16  and  CB_19 
DOCKED: REMARK       I    between atoms: C_17  and  N_23 
DOCKED: REMARK    9  A    between atoms: N_23  and  CA_24 
DOCKED: REMARK   10  A    between atoms: CA_24  and  CB_27 
DOCKED: REMARK   11  A    between atoms: CA_24  and  CH_31 
DOCKED: REMARK   12  A    between atoms: C_25  and  O_26 
DOCKED: REMARK   13  A    between atoms: C_25  and  CM_33 
DOCKED: REMARK   14  A    between atoms: C_25  and  N_37 
DOCKED: REMARK   15  A    between atoms: CB_27  and  CG_28 
DOCKED: REMARK   16  A    between atoms: CH_31  and  OH_32 
DOCKED: REMARK   17  A    between atoms: CH_31  and  CM_33 
DOCKED: USER                              x       y       z     vdW  Elec       q    Type
DOCKED: USER                           _______ _______ _______ _____ _____    ______ ____
DOCKED: ROOT
DOCKED: ATOM      1  CA  VAL J   3      -6.929   5.096   3.231 +0.01 +0.09    +0.180 C 
DOCKED: ENDROOT
DOCKED: BRANCH   1   2
DOCKED: ATOM      2  N   VAL J   3      -8.351   4.749   3.356 -0.07 -0.11    -0.346 N 
DOCKED: ATOM      3  H09 VAL J   3      -8.938   4.785   2.535 -0.34 +0.02    +0.163 HD
DOCKED: ATOM      4  C   VAL J   2      -8.882   4.392   4.507 -0.22 +0.06    +0.241 C 
DOCKED: ATOM      5  O   VAL J   2      -8.214   4.285   5.549 -0.18 -0.03    -0.271 OA
DOCKED: BRANCH   4   6
DOCKED: ATOM      6  CA  VAL J   2     -10.397   4.125   4.500 -0.22 +0.04    +0.180 C 
DOCKED: BRANCH   6   7
DOCKED: ATOM      7  N   VAL J   2     -10.983   5.378   4.038 -0.09 -0.08    -0.347 N 
DOCKED: ATOM      8  C   IVA J   1     -10.502   6.568   4.379 -0.26 +0.07    +0.218 C 
DOCKED: ATOM      9  O   IVA J   1      -9.556   6.668   5.164 -0.49 -0.07    -0.274 OA
DOCKED: ATOM     10  H10 VAL J   2     -11.791   5.340   3.433 +0.04 +0.03    +0.163 HD
DOCKED: BRANCH   8  11
DOCKED: ATOM     11  CA  IVA J   1     -11.163   7.795   3.779 -0.32 +0.03    +0.106 C 
DOCKED: BRANCH  11  12
DOCKED: ATOM     12  CB  IVA J   1     -11.552   7.635   2.296 -0.26 -0.00    -0.014 C 
DOCKED: ATOM     13  CG1 IVA J   1     -13.000   8.023   2.033 -0.18 +0.00    +0.010 C 
DOCKED: ATOM     14  CG2 IVA J   1     -10.672   8.391   1.310 -0.28 +0.00    +0.010 C 
DOCKED: ENDBRANCH  11  12
DOCKED: ENDBRANCH   8  11
DOCKED: ENDBRANCH   6   7
DOCKED: BRANCH   6  15
DOCKED: ATOM     15  CB  VAL J   2     -10.707   2.905   3.581 -0.29 +0.00    +0.009 C 
DOCKED: ATOM     16  CG1 VAL J   2      -9.786   1.702   3.864 -0.49 +0.01    +0.012 C 
DOCKED: ATOM     17  CG2 VAL J   2     -12.178   2.481   3.710 -0.30 +0.01    +0.012 C 
DOCKED: ENDBRANCH   6  15
DOCKED: ENDBRANCH   4   6
DOCKED: ENDBRANCH   1   2
DOCKED: BRANCH   1  18
DOCKED: ATOM     18  C   VAL J   3      -6.444   5.561   4.601 -0.27 +0.06    +0.241 C 
DOCKED: ATOM     19  N   STA J   4      -5.625   4.744   5.290 -0.15 -0.04    -0.352 N 
DOCKED: ATOM     20  H09 STA J   4      -5.380   3.845   4.902 +0.02 +0.03    +0.163 HD
DOCKED: ATOM     21  O   VAL J   3      -6.780   6.670   5.003 -0.23 -0.05    -0.271 OA
DOCKED: BRANCH  19  22
DOCKED: ATOM     22  CA  STA J   4      -5.082   5.141   6.593 -0.32 -0.00    +0.113 C 
DOCKED: BRANCH  22  23
DOCKED: ATOM     23  CB  STA J   4      -4.964   6.667   6.703 -0.40 +0.00    +0.031 C 
DOCKED: BRANCH  23  24
DOCKED: ATOM     24  CG  STA J   4      -3.704   7.230   6.020 -0.47 -0.00    -0.021 C 
DOCKED: ATOM     25  CD1 STA J   4      -3.953   8.582   5.358 -0.44 +0.00    +0.009 C 
DOCKED: ATOM     26  CD2 STA J   4      -3.126   6.257   4.979 -0.46 +0.00    +0.009 C 
DOCKED: ENDBRANCH  23  24
DOCKED: ENDBRANCH  22  23
DOCKED: BRANCH  22  27
DOCKED: ATOM     27  CH  STA J   4      -5.899   4.432   7.705 -0.28 -0.01    +0.145 C 
DOCKED: BRANCH  27  28
DOCKED: ATOM     28  OH  STA J   4      -6.658   3.324   7.236 -0.11 +0.07    -0.393 OA
DOCKED: ATOM     29  H15 STA J   4      -7.506   3.632   6.908 +0.12 -0.01    +0.210 HD
DOCKED: ENDBRANCH  27  28
DOCKED: BRANCH  27  30
DOCKED: ATOM     30  CM  STA J   4      -4.989   3.971   8.827 -0.29 -0.02    +0.097 C 
DOCKED: BRANCH  30  31
DOCKED: ATOM     31  C   STA J   4      -4.553   2.523   8.707 -0.18 -0.27    +0.353 C 
DOCKED: BRANCH  31  32
DOCKED: ATOM     32  O   STA J   4      -3.193   2.174   8.570 -0.24 +0.57    -0.368 OA
DOCKED: ATOM     33  H03 STA J   4      -2.843   2.562   7.764 -0.40 -0.43    +0.212 HD
DOCKED: ENDBRANCH  31  32
DOCKED: BRANCH  31  34
DOCKED: ATOM     34  N   ALA J   5      -5.555   1.657   8.576 -0.32 -0.09    +0.107 N 
DOCKED: ATOM     35  H01 ALA J   5      -5.668   1.416   7.602 -0.03 -0.28    +0.316 HD
DOCKED: ATOM     36  H18 ALA J   5      -6.408   2.075   8.921 +0.22 -0.13    +0.316 HD
DOCKED: ENDBRANCH  31  34
DOCKED: ENDBRANCH  30  31
DOCKED: ENDBRANCH  27  30
DOCKED: ENDBRANCH  22  27
DOCKED: ENDBRANCH  19  22
DOCKED: ENDBRANCH   1  18
DOCKED: BRANCH   1  37
DOCKED: ATOM     37  CB  VAL J   3      -6.753   6.239   2.186 -0.45 +0.00    +0.009 C 
DOCKED: ATOM     38  CG1 VAL J   3      -7.763   7.357   2.383 -0.46 +0.00    +0.012 C 
DOCKED: ATOM     39  CG2 VAL J   3      -5.331   6.812   2.239 -0.48 +0.00    +0.012 C 
DOCKED: ENDBRANCH   1  37
DOCKED: TORSDOF 17
DOCKED: TER
DOCKED: ENDMDL
________________________________________________________________________________


	BEGINNING GENETIC ALGORITHM DOCKING 7 of 10
Run: 7 Seed: 1735468731 668992609 [ Run 7 of 10 GA/GALS ]
Beginning LAMARCKIAN GENETIC ALGORITHM (LGA), with a maximum of 2500000 energy evaluations.

Final-Value: -15.231


	FINAL GENETIC ALGORITHM DOCKED STATE
	_______________________________________________


Detailed state:  trans -8.801 6.452 4.591 quatxyzw 0.615073 -0.491010 0.571249 -0.232958 center -9.499 5.878 4.011 ntor 17 -106.1694 -105.8728 -21.9169 28.8456 -116.3949 45.5978 -3.6257 176.9899 -70.3774 175.2839 168.3323 -142.5286 173.6957 179.6507 -94.0349 -161.4131 -179.2302
State:	 -8.801   6.452   4.591   0.632 -0.505  0.587 -153.057   -106.17 -105.87  -21.92   28.85 -116.39   45.60   -3.63  176.99  -70.38  175.28  168.33 -142.53  173.70  179.65  -94.03 -161.41 -179.23

DOCKED: MODEL        7
DOCKED: USER    Run = 7
DOCKED: USER    DPF = dock.dpf
DOCKED: USER  
DOCKED: USER    Estimated Free Energy of Binding    =   -4.67 kcal/mol  [=(1)+(2)+(3)-(4)]
DOCKED: USER    Estimated Inhibition Constant, Ki   =  376.02 uM (micromolar)  [Temperature = 298.15 K]
DOCKED: USER    
DOCKED: USER    (1) Final Intermolecular Energy     =   -9.74 kcal/mol
DOCKED: USER        vdW + Hbond + desolv Energy     =   -9.81 kcal/mol
DOCKED: USER        Electrostatic Energy            =   +0.06 kcal/mol
DOCKED: USER    (2) Final Total Internal Energy     =   -5.49 kcal/mol
DOCKED: USER    (3) Torsional Free Energy           =   +5.07 kcal/mol
DOCKED: USER    (4) Unbound System's Energy  [=(2)] =   -5.49 kcal/mol
DOCKED: USER    
DOCKED: USER    
DOCKED: USER    NEWDPF move lig3sm1_fixed.pdbqt
DOCKED: USER    NEWDPF about -9.499000 5.878000 4.011000
DOCKED: USER    NEWDPF tran0 -8.800640 6.452438 4.591268
DOCKED: USER    NEWDPF quaternion0 0.615073 -0.491010 0.571249 -0.232958
DOCKED: USER    NEWDPF axisangle0 0.632474 -0.504902 0.587410 -153.057484
DOCKED: USER    NEWDPF quat0 0.632474 -0.504902 0.587410 -153.057484
DOCKED: USER    NEWDPF dihe0 -106.17 -105.87 -21.92 28.85 -116.39 45.60 -3.63 176.99 -70.38 175.28 168.33 -142.53 173.70 179.65 -94.03 -161.41 -179.23 
DOCKED: USER  keepresnum = 1 
DOCKED: USER  
DOCKED: REMARK  17 active torsions:
DOCKED: REMARK  status: ('A' for Active; 'I' for Inactive)
DOCKED: REMARK    1  A    between atoms: CA_1  and  C_2 
DOCKED: REMARK    2  A    between atoms: CA_1  and  CB_4 
DOCKED: REMARK       I    between atoms: C_2  and  N_7 
DOCKED: REMARK    3  A    between atoms: N_7  and  CA_8 
DOCKED: REMARK    4  A    between atoms: CA_8  and  C_9 
DOCKED: REMARK    5  A    between atoms: CA_8  and  CB_11 
DOCKED: REMARK       I    between atoms: C_9  and  N_15 
DOCKED: REMARK    6  A    between atoms: N_15  and  CA_16 
DOCKED: REMARK    7  A    between atoms: CA_16  and  C_17 
DOCKED: REMARK    8  A    between atoms: CA_16  and  CB_19 
DOCKED: REMARK       I    between atoms: C_17  and  N_23 
DOCKED: REMARK    9  A    between atoms: N_23  and  CA_24 
DOCKED: REMARK   10  A    between atoms: CA_24  and  CB_27 
DOCKED: REMARK   11  A    between atoms: CA_24  and  CH_31 
DOCKED: REMARK   12  A    between atoms: C_25  and  O_26 
DOCKED: REMARK   13  A    between atoms: C_25  and  CM_33 
DOCKED: REMARK   14  A    between atoms: C_25  and  N_37 
DOCKED: REMARK   15  A    between atoms: CB_27  and  CG_28 
DOCKED: REMARK   16  A    between atoms: CH_31  and  OH_32 
DOCKED: REMARK   17  A    between atoms: CH_31  and  CM_33 
DOCKED: USER                              x       y       z     vdW  Elec       q    Type
DOCKED: USER                           _______ _______ _______ _____ _____    ______ ____
DOCKED: ROOT
DOCKED: ATOM      1  CA  VAL J   3      -8.099   6.551   4.693 -0.32 +0.04    +0.180 C 
DOCKED: ENDROOT
DOCKED: BRANCH   1   2
DOCKED: ATOM      2  N   VAL J   3      -7.966   5.316   5.477 -0.09 -0.02    -0.346 N 
DOCKED: ATOM      3  H09 VAL J   3      -7.915   5.377   6.484 -0.42 -0.05    +0.163 HD
DOCKED: ATOM      4  C   VAL J   2      -7.912   4.131   4.905 -0.24 +0.05    +0.241 C 
DOCKED: ATOM      5  O   VAL J   2      -8.010   3.974   3.676 -0.51 -0.12    -0.271 OA
DOCKED: BRANCH   4   6
DOCKED: ATOM      6  CA  VAL J   2      -7.702   2.933   5.848 -0.16 +0.00    +0.180 C 
DOCKED: BRANCH   6   7
DOCKED: ATOM      7  N   VAL J   2      -6.442   3.221   6.523 +0.00 +0.08    -0.347 N 
DOCKED: ATOM      8  C   IVA J   1      -6.347   4.063   7.544 -0.23 -0.02    +0.218 C 
DOCKED: ATOM      9  O   IVA J   1      -7.330   4.698   7.936 -0.16 +0.03    -0.274 OA
DOCKED: ATOM     10  H10 VAL J   2      -5.604   2.758   6.199 -0.33 -0.10    +0.163 HD
DOCKED: BRANCH   8  11
DOCKED: ATOM     11  CA  IVA J   1      -4.989   4.226   8.202 -0.29 -0.02    +0.106 C 
DOCKED: BRANCH  11  12
DOCKED: ATOM     12  CB  IVA J   1      -4.064   5.230   7.487 -0.35 +0.00    -0.014 C 
DOCKED: ATOM     13  CG1 IVA J   1      -3.324   4.600   6.315 -0.33 -0.00    +0.010 C 
DOCKED: ATOM     14  CG2 IVA J   1      -4.743   6.499   6.992 -0.38 +0.00    +0.010 C 
DOCKED: ENDBRANCH  11  12
DOCKED: ENDBRANCH   8  11
DOCKED: ENDBRANCH   6   7
DOCKED: BRANCH   6  15
DOCKED: ATOM     15  CB  VAL J   2      -8.922   2.807   6.810 -0.42 +0.00    +0.009 C 
DOCKED: ATOM     16  CG1 VAL J   2     -10.160   2.200   6.120 -0.40 +0.00    +0.012 C 
DOCKED: ATOM     17  CG2 VAL J   2      -8.557   1.981   8.053 -0.50 +0.00    +0.012 C 
DOCKED: ENDBRANCH   6  15
DOCKED: ENDBRANCH   4   6
DOCKED: ENDBRANCH   1   2
DOCKED: BRANCH   1  18
DOCKED: ATOM     18  C   VAL J   3      -9.543   6.639   4.208 -0.28 +0.07    +0.241 C 
DOCKED: ATOM     19  N   STA J   4     -10.157   5.495   3.851 -0.10 -0.07    -0.352 N 
DOCKED: ATOM     20  H09 STA J   4      -9.646   4.625   3.883 +0.04 +0.03    +0.163 HD
DOCKED: ATOM     21  O   VAL J   3     -10.100   7.731   4.202 -0.88 -0.14    -0.271 OA
DOCKED: BRANCH  19  22
DOCKED: ATOM     22  CA  STA J   4     -11.558   5.494   3.416 -0.17 +0.02    +0.113 C 
DOCKED: BRANCH  22  23
DOCKED: ATOM     23  CB  STA J   4     -11.765   6.418   2.209 -0.17 +0.01    +0.031 C 
DOCKED: BRANCH  23  24
DOCKED: ATOM     24  CG  STA J   4     -13.002   7.325   2.344 -0.15 -0.01    -0.021 C 
DOCKED: ATOM     25  CD1 STA J   4     -13.242   8.174   1.098 -0.12 +0.00    +0.009 C 
DOCKED: ATOM     26  CD2 STA J   4     -12.915   8.245   3.572 -0.33 +0.00    +0.009 C 
DOCKED: ENDBRANCH  23  24
DOCKED: ENDBRANCH  22  23
DOCKED: BRANCH  22  27
DOCKED: ATOM     27  CH  STA J   4     -12.021   4.023   3.245 -0.13 +0.03    +0.145 C 
DOCKED: BRANCH  27  28
DOCKED: ATOM     28  OH  STA J   4     -10.952   3.084   3.250 -0.10 -0.10    -0.393 OA
DOCKED: ATOM     29  H15 STA J   4     -10.172   3.483   2.857 -0.50 +0.01    +0.210 HD
DOCKED: ENDBRANCH  27  28
DOCKED: BRANCH  27  30
DOCKED: ATOM     30  CM  STA J   4     -13.019   3.646   4.322 -0.22 +0.03    +0.097 C 
DOCKED: BRANCH  30  31
DOCKED: ATOM     31  C   STA J   4     -12.980   4.553   5.538 -0.14 +0.11    +0.353 C 
DOCKED: BRANCH  31  32
DOCKED: ATOM     32  O   STA J   4     -14.064   5.396   5.861 -0.10 -0.12    -0.368 OA
DOCKED: ATOM     33  H03 STA J   4     -14.623   5.510   5.088 +0.07 +0.06    +0.212 HD
DOCKED: ENDBRANCH  31  32
DOCKED: BRANCH  31  34
DOCKED: ATOM     34  N   ALA J   5     -11.798   4.602   6.149 -0.30 +0.03    +0.107 N 
DOCKED: ATOM     35  H01 ALA J   5     -11.537   5.565   6.303 +0.13 +0.11    +0.316 HD
DOCKED: ATOM     36  H18 ALA J   5     -11.102   4.153   5.572 +0.17 +0.08    +0.316 HD
DOCKED: ENDBRANCH  31  34
DOCKED: ENDBRANCH  30  31
DOCKED: ENDBRANCH  27  30
DOCKED: ENDBRANCH  22  27
DOCKED: ENDBRANCH  19  22
DOCKED: ENDBRANCH   1  18
DOCKED: BRANCH   1  37
DOCKED: ATOM     37  CB  VAL J   3      -7.127   6.512   3.475 -0.44 +0.00    +0.009 C 
DOCKED: ATOM     38  CG1 VAL J   3      -7.475   7.562   2.432 -0.47 +0.00    +0.012 C 
DOCKED: ATOM     39  CG2 VAL J   3      -5.674   6.696   3.929 -0.48 +0.00    +0.012 C 
DOCKED: ENDBRANCH   1  37
DOCKED: TORSDOF 17
DOCKED: TER
DOCKED: ENDMDL
________________________________________________________________________________


	BEGINNING GENETIC ALGORITHM DOCKING 8 of 10
Run: 8 Seed: 1011902727 1965187127 [ Run 8 of 10 GA/GALS ]
Beginning LAMARCKIAN GENETIC ALGORITHM (LGA), with a maximum of 2500000 energy evaluations.

Final-Value: -13.924


	FINAL GENETIC ALGORITHM DOCKED STATE
	_______________________________________________


Detailed state:  trans -10.749 6.520 3.637 quatxyzw -0.850734 0.393356 -0.347998 0.020474 center -9.499 5.878 4.011 ntor 17 -96.0320 -179.5878 -18.4534 -66.9796 -16.9923 29.8361 -151.8648 20.6449 20.5388 125.6224 -179.7308 59.0430 160.5548 45.1700 -39.7497 -20.0243 -178.9072
State:	-10.749   6.520   3.637  -0.851  0.393 -0.348 177.654    -96.03 -179.59  -18.45  -66.98  -16.99   29.84 -151.86   20.64   20.54  125.62 -179.73   59.04  160.55   45.17  -39.75  -20.02 -178.91

DOCKED: MODEL        8
DOCKED: USER    Run = 8
DOCKED: USER    DPF = dock.dpf
DOCKED: USER  
DOCKED: USER    Estimated Free Energy of Binding    =   -3.83 kcal/mol  [=(1)+(2)+(3)-(4)]
DOCKED: USER    Estimated Inhibition Constant, Ki   =    1.55 mM (millimolar)  [Temperature = 298.15 K]
DOCKED: USER    
DOCKED: USER    (1) Final Intermolecular Energy     =   -8.90 kcal/mol
DOCKED: USER        vdW + Hbond + desolv Energy     =   -9.07 kcal/mol
DOCKED: USER        Electrostatic Energy            =   +0.16 kcal/mol
DOCKED: USER    (2) Final Total Internal Energy     =   -5.02 kcal/mol
DOCKED: USER    (3) Torsional Free Energy           =   +5.07 kcal/mol
DOCKED: USER    (4) Unbound System's Energy  [=(2)] =   -5.02 kcal/mol
DOCKED: USER    
DOCKED: USER    
DOCKED: USER    NEWDPF move lig3sm1_fixed.pdbqt
DOCKED: USER    NEWDPF about -9.499000 5.878000 4.011000
DOCKED: USER    NEWDPF tran0 -10.749197 6.519708 3.637079
DOCKED: USER    NEWDPF quaternion0 -0.850734 0.393356 -0.347998 0.020474
DOCKED: USER    NEWDPF axisangle0 -0.850913 0.393438 -0.348071 177.653655
DOCKED: USER    NEWDPF quat0 -0.850913 0.393438 -0.348071 177.653655
DOCKED: USER    NEWDPF dihe0 -96.03 -179.59 -18.45 -66.98 -16.99 29.84 -151.86 20.64 20.54 125.62 -179.73 59.04 160.55 45.17 -39.75 -20.02 -178.91 
DOCKED: USER  keepresnum = 1 
DOCKED: USER  
DOCKED: REMARK  17 active torsions:
DOCKED: REMARK  status: ('A' for Active; 'I' for Inactive)
DOCKED: REMARK    1  A    between atoms: CA_1  and  C_2 
DOCKED: REMARK    2  A    between atoms: CA_1  and  CB_4 
DOCKED: REMARK       I    between atoms: C_2  and  N_7 
DOCKED: REMARK    3  A    between atoms: N_7  and  CA_8 
DOCKED: REMARK    4  A    between atoms: CA_8  and  C_9 
DOCKED: REMARK    5  A    between atoms: CA_8  and  CB_11 
DOCKED: REMARK       I    between atoms: C_9  and  N_15 
DOCKED: REMARK    6  A    between atoms: N_15  and  CA_16 
DOCKED: REMARK    7  A    between atoms: CA_16  and  C_17 
DOCKED: REMARK    8  A    between atoms: CA_16  and  CB_19 
DOCKED: REMARK       I    between atoms: C_17  and  N_23 
DOCKED: REMARK    9  A    between atoms: N_23  and  CA_24 
DOCKED: REMARK   10  A    between atoms: CA_24  and  CB_27 
DOCKED: REMARK   11  A    between atoms: CA_24  and  CH_31 
DOCKED: REMARK   12  A    between atoms: C_25  and  O_26 
DOCKED: REMARK   13  A    between atoms: C_25  and  CM_33 
DOCKED: REMARK   14  A    between atoms: C_25  and  N_37 
DOCKED: REMARK   15  A    between atoms: CB_27  and  CG_28 
DOCKED: REMARK   16  A    between atoms: CH_31  and  OH_32 
DOCKED: REMARK   17  A    between atoms: CH_31  and  CM_33 
DOCKED: USER                              x       y       z     vdW  Elec       q    Type
DOCKED: USER                           _______ _______ _______ _____ _____    ______ ____
DOCKED: ROOT
DOCKED: ATOM      1  CA  VAL J   3     -10.170   6.940   3.609 -0.31 +0.05    +0.180 C 
DOCKED: ENDROOT
DOCKED: BRANCH   1   2
DOCKED: ATOM      2  N   VAL J   3      -9.253   5.795   3.556 -0.12 -0.08    -0.346 N 
DOCKED: ATOM      3  H09 VAL J   3      -9.504   4.990   3.000 -0.22 +0.02    +0.163 HD
DOCKED: ATOM      4  C   VAL J   2      -8.111   5.787   4.213 -0.26 +0.06    +0.241 C 
DOCKED: ATOM      5  O   VAL J   2      -7.716   6.756   4.883 -0.28 -0.05    -0.271 OA
DOCKED: BRANCH   4   6
DOCKED: ATOM      6  CA  VAL J   2      -7.286   4.492   4.119 -0.21 +0.07    +0.180 C 
DOCKED: BRANCH   6   7
DOCKED: ATOM      7  N   VAL J   2      -5.974   4.859   4.641 -0.17 -0.09    -0.347 N 
DOCKED: ATOM      8  C   IVA J   1      -5.073   5.520   3.925 -0.36 +0.06    +0.218 C 
DOCKED: ATOM      9  O   IVA J   1      -5.287   5.806   2.744 -0.90 -0.11    -0.274 OA
DOCKED: ATOM     10  H10 VAL J   2      -5.742   4.599   5.589 +0.09 +0.01    +0.163 HD
DOCKED: BRANCH   8  11
DOCKED: ATOM     11  CA  IVA J   1      -3.771   5.899   4.606 -0.44 +0.01    +0.106 C 
DOCKED: BRANCH  11  12
DOCKED: ATOM     12  CB  IVA J   1      -3.910   7.041   5.631 -0.48 -0.00    -0.014 C 
DOCKED: ATOM     13  CG1 IVA J   1      -3.952   8.411   4.969 -0.48 +0.00    +0.010 C 
DOCKED: ATOM     14  CG2 IVA J   1      -5.106   6.931   6.567 -0.41 +0.00    +0.010 C 
DOCKED: ENDBRANCH  11  12
DOCKED: ENDBRANCH   8  11
DOCKED: ENDBRANCH   6   7
DOCKED: BRANCH   6  15
DOCKED: ATOM     15  CB  VAL J   2      -7.994   3.362   4.925 -0.40 +0.00    +0.009 C 
DOCKED: ATOM     16  CG1 VAL J   2      -9.002   3.912   5.955 -0.35 +0.00    +0.012 C 
DOCKED: ATOM     17  CG2 VAL J   2      -8.696   2.372   3.983 -0.49 +0.01    +0.012 C 
DOCKED: ENDBRANCH   6  15
DOCKED: ENDBRANCH   4   6
DOCKED: ENDBRANCH   1   2
DOCKED: BRANCH   1  18
DOCKED: ATOM     18  C   VAL J   3     -11.595   6.393   3.598 -0.17 +0.06    +0.241 C 
DOCKED: ATOM     19  N   STA J   4     -11.845   5.304   2.845 -0.04 -0.05    -0.352 N 
DOCKED: ATOM     20  H09 STA J   4     -11.102   4.902   2.291 -0.50 -0.04    +0.163 HD
DOCKED: ATOM     21  O   VAL J   3     -12.441   6.932   4.301 -0.18 -0.09    -0.271 OA
DOCKED: BRANCH  19  22
DOCKED: ATOM     22  CA  STA J   4     -13.178   4.695   2.818 -0.11 +0.03    +0.113 C 
DOCKED: BRANCH  22  23
DOCKED: ATOM     23  CB  STA J   4     -13.843   4.876   1.446 -0.09 +0.01    +0.031 C 
DOCKED: BRANCH  23  24
DOCKED: ATOM     24  CG  STA J   4     -13.665   6.291   0.867 -0.08 -0.01    -0.021 C 
DOCKED: ATOM     25  CD1 STA J   4     -14.594   7.310   1.520 -0.05 +0.00    +0.009 C 
DOCKED: ATOM     26  CD2 STA J   4     -13.870   6.323  -0.656 -0.06 +0.00    +0.009 C 
DOCKED: ENDBRANCH  23  24
DOCKED: ENDBRANCH  22  23
DOCKED: BRANCH  22  27
DOCKED: ATOM     27  CH  STA J   4     -13.067   3.239   3.343 -0.18 +0.05    +0.145 C 
DOCKED: BRANCH  27  28
DOCKED: ATOM     28  OH  STA J   4     -11.780   2.662   3.156 -0.19 -0.14    -0.393 OA
DOCKED: ATOM     29  H15 STA J   4     -11.324   3.118   2.444 -0.38 +0.01    +0.210 HD
DOCKED: ENDBRANCH  27  28
DOCKED: BRANCH  27  30
DOCKED: ATOM     30  CM  STA J   4     -13.434   3.170   4.812 -0.25 +0.03    +0.097 C 
DOCKED: BRANCH  30  31
DOCKED: ATOM     31  C   STA J   4     -13.635   4.528   5.458 -0.13 +0.11    +0.353 C 
DOCKED: BRANCH  31  32
DOCKED: ATOM     32  O   STA J   4     -14.669   5.393   5.044 -0.04 -0.10    -0.368 OA
DOCKED: ATOM     33  H03 STA J   4     -14.338   5.987   4.366 +0.06 +0.06    +0.212 HD
DOCKED: ENDBRANCH  31  32
DOCKED: BRANCH  31  34
DOCKED: ATOM     34  N   ALA J   5     -12.670   4.881   6.305 -0.26 +0.04    +0.107 N 
DOCKED: ATOM     35  H01 ALA J   5     -12.185   5.691   5.945 +0.15 +0.12    +0.316 HD
DOCKED: ATOM     36  H18 ALA J   5     -12.018   4.117   6.410 +0.16 +0.11    +0.316 HD
DOCKED: ENDBRANCH  31  34
DOCKED: ENDBRANCH  30  31
DOCKED: ENDBRANCH  27  30
DOCKED: ENDBRANCH  22  27
DOCKED: ENDBRANCH  19  22
DOCKED: ENDBRANCH   1  18
DOCKED: BRANCH   1  37
DOCKED: ATOM     37  CB  VAL J   3      -9.942   7.860   2.372 -0.37 +0.00    +0.009 C 
DOCKED: ATOM     38  CG1 VAL J   3      -9.157   7.161   1.275 -0.33 +0.00    +0.012 C 
DOCKED: ATOM     39  CG2 VAL J   3     -11.278   8.362   1.811 -0.23 +0.00    +0.012 C 
DOCKED: ENDBRANCH   1  37
DOCKED: TORSDOF 17
DOCKED: TER
DOCKED: ENDMDL
________________________________________________________________________________


	BEGINNING GENETIC ALGORITHM DOCKING 9 of 10
Run: 9 Seed: 281396001 1962762212 [ Run 9 of 10 GA/GALS ]
Beginning LAMARCKIAN GENETIC ALGORITHM (LGA), with a maximum of 2500000 energy evaluations.

Final-Value: -16.402


	FINAL GENETIC ALGORITHM DOCKED STATE
	_______________________________________________


Detailed state:  trans -10.601 5.450 4.614 quatxyzw 0.010750 0.017276 0.245595 0.969159 center -9.499 5.878 4.011 ntor 17 -24.1041 180.0000 -16.9442 43.5108 -42.8314 -9.6691 -11.3786 -70.6959 -166.2384 107.0815 83.7338 68.1141 122.8023 179.9503 -104.0469 12.9483 15.0577
State:	-10.601   5.450   4.614   0.044  0.070  0.997 28.533    -24.10  180.00  -16.94   43.51  -42.83   -9.67  -11.38  -70.70 -166.24  107.08   83.73   68.11  122.80  179.95 -104.05   12.95   15.06

DOCKED: MODEL        9
DOCKED: USER    Run = 9
DOCKED: USER    DPF = dock.dpf
DOCKED: USER  
DOCKED: USER    Estimated Free Energy of Binding    =   -6.65 kcal/mol  [=(1)+(2)+(3)-(4)]
DOCKED: USER    Estimated Inhibition Constant, Ki   =   13.35 uM (micromolar)  [Temperature = 298.15 K]
DOCKED: USER    
DOCKED: USER    (1) Final Intermolecular Energy     =  -11.72 kcal/mol
DOCKED: USER        vdW + Hbond + desolv Energy     =  -11.76 kcal/mol
DOCKED: USER        Electrostatic Energy            =   +0.04 kcal/mol
DOCKED: USER    (2) Final Total Internal Energy     =   -4.68 kcal/mol
DOCKED: USER    (3) Torsional Free Energy           =   +5.07 kcal/mol
DOCKED: USER    (4) Unbound System's Energy  [=(2)] =   -4.68 kcal/mol
DOCKED: USER    
DOCKED: USER    
DOCKED: USER    NEWDPF move lig3sm1_fixed.pdbqt
DOCKED: USER    NEWDPF about -9.499000 5.878000 4.011000
DOCKED: USER    NEWDPF tran0 -10.600872 5.450240 4.613528
DOCKED: USER    NEWDPF quaternion0 0.010750 0.017276 0.245595 0.969159
DOCKED: USER    NEWDPF axisangle0 0.043623 0.070103 0.996585 28.533467
DOCKED: USER    NEWDPF quat0 0.043623 0.070103 0.996585 28.533467
DOCKED: USER    NEWDPF dihe0 -24.10 180.00 -16.94 43.51 -42.83 -9.67 -11.38 -70.70 -166.24 107.08 83.73 68.11 122.80 179.95 -104.05 12.95 15.06 
DOCKED: USER  keepresnum = 1 
DOCKED: USER  
DOCKED: REMARK  17 active torsions:
DOCKED: REMARK  status: ('A' for Active; 'I' for Inactive)
DOCKED: REMARK    1  A    between atoms: CA_1  and  C_2 
DOCKED: REMARK    2  A    between atoms: CA_1  and  CB_4 
DOCKED: REMARK       I    between atoms: C_2  and  N_7 
DOCKED: REMARK    3  A    between atoms: N_7  and  CA_8 
DOCKED: REMARK    4  A    between atoms: CA_8  and  C_9 
DOCKED: REMARK    5  A    between atoms: CA_8  and  CB_11 
DOCKED: REMARK       I    between atoms: C_9  and  N_15 
DOCKED: REMARK    6  A    between atoms: N_15  and  CA_16 
DOCKED: REMARK    7  A    between atoms: CA_16  and  C_17 
DOCKED: REMARK    8  A    between atoms: CA_16  and  CB_19 
DOCKED: REMARK       I    between atoms: C_17  and  N_23 
DOCKED: REMARK    9  A    between atoms: N_23  and  CA_24 
DOCKED: REMARK   10  A    between atoms: CA_24  and  CB_27 
DOCKED: REMARK   11  A    between atoms: CA_24  and  CH_31 
DOCKED: REMARK   12  A    between atoms: C_25  and  O_26 
DOCKED: REMARK   13  A    between atoms: C_25  and  CM_33 
DOCKED: REMARK   14  A    between atoms: C_25  and  N_37 
DOCKED: REMARK   15  A    between atoms: CB_27  and  CG_28 
DOCKED: REMARK   16  A    between atoms: CH_31  and  OH_32 
DOCKED: REMARK   17  A    between atoms: CH_31  and  CM_33 
DOCKED: USER                              x       y       z     vdW  Elec       q    Type
DOCKED: USER                           _______ _______ _______ _____ _____    ______ ____
DOCKED: ROOT
DOCKED: ATOM      1  CA  VAL J   3     -10.960   4.876   4.845 -0.23 +0.04    +0.180 C 
DOCKED: ENDROOT
DOCKED: BRANCH   1   2
DOCKED: ATOM      2  N   VAL J   3      -9.910   4.519   5.808 -0.12 -0.05    -0.346 N 
DOCKED: ATOM      3  H09 VAL J   3      -9.797   5.081   6.641 -0.44 -0.02    +0.163 HD
DOCKED: ATOM      4  C   VAL J   2      -9.112   3.489   5.619 -0.22 +0.04    +0.241 C 
DOCKED: ATOM      5  O   VAL J   2      -9.218   2.729   4.642 -0.22 -0.10    -0.271 OA
DOCKED: BRANCH   4   6
DOCKED: ATOM      6  CA  VAL J   2      -8.015   3.280   6.677 -0.26 -0.00    +0.180 C 
DOCKED: BRANCH   6   7
DOCKED: ATOM      7  N   VAL J   2      -7.250   4.521   6.657 -0.09 +0.02    -0.347 N 
DOCKED: ATOM      8  C   IVA J   1      -6.474   4.874   5.640 -0.26 +0.02    +0.218 C 
DOCKED: ATOM      9  O   IVA J   1      -6.315   4.123   4.674 -0.80 -0.09    -0.274 OA
DOCKED: ATOM     10  H10 VAL J   2      -7.315   5.141   7.453 -0.46 -0.03    +0.163 HD
DOCKED: BRANCH   8  11
DOCKED: ATOM     11  CA  IVA J   1      -5.782   6.222   5.714 -0.34 +0.01    +0.106 C 
DOCKED: BRANCH  11  12
DOCKED: ATOM     12  CB  IVA J   1      -5.230   6.717   4.363 -0.47 -0.00    -0.014 C 
DOCKED: ATOM     13  CG1 IVA J   1      -3.918   6.038   3.991 -0.56 +0.00    +0.010 C 
DOCKED: ATOM     14  CG2 IVA J   1      -6.183   6.583   3.184 -0.51 +0.00    +0.010 C 
DOCKED: ENDBRANCH  11  12
DOCKED: ENDBRANCH   8  11
DOCKED: ENDBRANCH   6   7
DOCKED: BRANCH   6  15
DOCKED: ATOM     15  CB  VAL J   2      -8.672   2.962   8.054 -0.46 +0.00    +0.009 C 
DOCKED: ATOM     16  CG1 VAL J   2      -8.870   1.450   8.281 -0.56 +0.00    +0.012 C 
DOCKED: ATOM     17  CG2 VAL J   2      -7.850   3.562   9.205 -0.50 +0.00    +0.012 C 
DOCKED: ENDBRANCH   6  15
DOCKED: ENDBRANCH   4   6
DOCKED: ENDBRANCH   1   2
DOCKED: BRANCH   1  18
DOCKED: ATOM     18  C   VAL J   3     -10.549   6.184   4.175 -0.23 +0.06    +0.241 C 
DOCKED: ATOM     19  N   STA J   4     -11.079   6.467   2.970 -0.09 -0.07    -0.352 N 
DOCKED: ATOM     20  H09 STA J   4     -11.701   5.803   2.533 -0.03 +0.02    +0.163 HD
DOCKED: ATOM     21  O   VAL J   3      -9.792   6.942   4.772 -0.71 -0.11    -0.271 OA
DOCKED: BRANCH  19  22
DOCKED: ATOM     22  CA  STA J   4     -10.766   7.724   2.284 -0.27 +0.02    +0.113 C 
DOCKED: BRANCH  22  23
DOCKED: ATOM     23  CB  STA J   4      -9.256   7.998   2.289 -0.40 +0.01    +0.031 C 
DOCKED: BRANCH  23  24
DOCKED: ATOM     24  CG  STA J   4      -8.696   8.341   0.896 -0.41 -0.01    -0.021 C 
DOCKED: ATOM     25  CD1 STA J   4      -7.955   7.168   0.259 -0.44 +0.00    +0.009 C 
DOCKED: ATOM     26  CD2 STA J   4      -7.769   9.566   0.929 -0.52 +0.00    +0.009 C 
DOCKED: ENDBRANCH  23  24
DOCKED: ENDBRANCH  22  23
DOCKED: BRANCH  22  27
DOCKED: ATOM     27  CH  STA J   4     -11.460   7.716   0.896 -0.17 +0.03    +0.145 C 
DOCKED: BRANCH  27  28
DOCKED: ATOM     28  OH  STA J   4     -10.980   6.700   0.024 -0.04 -0.09    -0.393 OA
DOCKED: ATOM     29  H15 STA J   4     -10.970   5.859   0.487 -0.32 +0.01    +0.210 HD
DOCKED: ENDBRANCH  27  28
DOCKED: BRANCH  27  30
DOCKED: ATOM     30  CM  STA J   4     -12.962   7.571   1.049 -0.10 +0.02    +0.097 C 
DOCKED: BRANCH  30  31
DOCKED: ATOM     31  C   STA J   4     -13.480   6.185   0.717 -0.05 +0.09    +0.353 C 
DOCKED: BRANCH  31  32
DOCKED: ATOM     32  O   STA J   4     -12.835   5.025   1.195 -0.12 -0.07    -0.368 OA
DOCKED: ATOM     33  H03 STA J   4     -12.200   4.720   0.542 -0.52 +0.03    +0.212 HD
DOCKED: ENDBRANCH  31  32
DOCKED: BRANCH  31  34
DOCKED: ATOM     34  N   ALA J   5     -14.466   6.168  -0.177 -0.03 +0.03    +0.107 N 
DOCKED: ATOM     35  H01 ALA J   5     -14.088   6.331  -1.100 +0.02 +0.09    +0.316 HD
DOCKED: ATOM     36  H18 ALA J   5     -15.135   6.890   0.045 +0.02 +0.09    +0.316 HD
DOCKED: ENDBRANCH  31  34
DOCKED: ENDBRANCH  30  31
DOCKED: ENDBRANCH  27  30
DOCKED: ENDBRANCH  22  27
DOCKED: ENDBRANCH  19  22
DOCKED: ENDBRANCH   1  18
DOCKED: BRANCH   1  37
DOCKED: ATOM     37  CB  VAL J   3     -12.319   5.059   5.586 -0.31 +0.00    +0.009 C 
DOCKED: ATOM     38  CG1 VAL J   3     -13.280   5.944   4.809 -0.21 +0.00    +0.012 C 
DOCKED: ATOM     39  CG2 VAL J   3     -12.976   3.702   5.865 -0.31 +0.00    +0.012 C 
DOCKED: ENDBRANCH   1  37
DOCKED: TORSDOF 17
DOCKED: TER
DOCKED: ENDMDL
________________________________________________________________________________


	BEGINNING GENETIC ALGORITHM DOCKING 10 of 10
Run: 10 Seed: 1909942985 1713155875 [ Run 10 of 10 GA/GALS ]
Beginning LAMARCKIAN GENETIC ALGORITHM (LGA), with a maximum of 2500000 energy evaluations.

Final-Value: -16.298


	FINAL GENETIC ALGORITHM DOCKED STATE
	_______________________________________________


Detailed state:  trans -8.378 3.500 6.396 quatxyzw -0.358242 0.606643 0.121302 -0.699237 center -9.499 5.878 4.011 ntor 17 -107.8258 -142.3201 131.0238 -179.4552 -52.6123 -50.1431 28.2489 156.5807 -114.1279 130.4933 103.6422 85.8817 -149.3478 11.7775 157.8283 -171.7209 -113.6448
State:	 -8.378   3.500   6.396  -0.501  0.849  0.170 -91.268   -107.83 -142.32  131.02 -179.46  -52.61  -50.14   28.25  156.58 -114.13  130.49  103.64   85.88 -149.35   11.78  157.83 -171.72 -113.64

DOCKED: MODEL       10
DOCKED: USER    Run = 10
DOCKED: USER    DPF = dock.dpf
DOCKED: USER  
DOCKED: USER    Estimated Free Energy of Binding    =   -5.73 kcal/mol  [=(1)+(2)+(3)-(4)]
DOCKED: USER    Estimated Inhibition Constant, Ki   =   62.86 uM (micromolar)  [Temperature = 298.15 K]
DOCKED: USER    
DOCKED: USER    (1) Final Intermolecular Energy     =  -10.80 kcal/mol
DOCKED: USER        vdW + Hbond + desolv Energy     =  -10.91 kcal/mol
DOCKED: USER        Electrostatic Energy            =   +0.10 kcal/mol
DOCKED: USER    (2) Final Total Internal Energy     =   -5.50 kcal/mol
DOCKED: USER    (3) Torsional Free Energy           =   +5.07 kcal/mol
DOCKED: USER    (4) Unbound System's Energy  [=(2)] =   -5.50 kcal/mol
DOCKED: USER    
DOCKED: USER    
DOCKED: USER    NEWDPF move lig3sm1_fixed.pdbqt
DOCKED: USER    NEWDPF about -9.499000 5.878000 4.011000
DOCKED: USER    NEWDPF tran0 -8.378274 3.500268 6.395529
DOCKED: USER    NEWDPF quaternion0 -0.358242 0.606643 0.121302 -0.699237
DOCKED: USER    NEWDPF axisangle0 -0.501115 0.848583 0.169680 -91.268352
DOCKED: USER    NEWDPF quat0 -0.501115 0.848583 0.169680 -91.268352
DOCKED: USER    NEWDPF dihe0 -107.83 -142.32 131.02 -179.46 -52.61 -50.14 28.25 156.58 -114.13 130.49 103.64 85.88 -149.35 11.78 157.83 -171.72 -113.64 
DOCKED: USER  keepresnum = 1 
DOCKED: USER  
DOCKED: REMARK  17 active torsions:
DOCKED: REMARK  status: ('A' for Active; 'I' for Inactive)
DOCKED: REMARK    1  A    between atoms: CA_1  and  C_2 
DOCKED: REMARK    2  A    between atoms: CA_1  and  CB_4 
DOCKED: REMARK       I    between atoms: C_2  and  N_7 
DOCKED: REMARK    3  A    between atoms: N_7  and  CA_8 
DOCKED: REMARK    4  A    between atoms: CA_8  and  C_9 
DOCKED: REMARK    5  A    between atoms: CA_8  and  CB_11 
DOCKED: REMARK       I    between atoms: C_9  and  N_15 
DOCKED: REMARK    6  A    between atoms: N_15  and  CA_16 
DOCKED: REMARK    7  A    between atoms: CA_16  and  C_17 
DOCKED: REMARK    8  A    between atoms: CA_16  and  CB_19 
DOCKED: REMARK       I    between atoms: C_17  and  N_23 
DOCKED: REMARK    9  A    between atoms: N_23  and  CA_24 
DOCKED: REMARK   10  A    between atoms: CA_24  and  CB_27 
DOCKED: REMARK   11  A    between atoms: CA_24  and  CH_31 
DOCKED: REMARK   12  A    between atoms: C_25  and  O_26 
DOCKED: REMARK   13  A    between atoms: C_25  and  CM_33 
DOCKED: REMARK   14  A    between atoms: C_25  and  N_37 
DOCKED: REMARK   15  A    between atoms: CB_27  and  CG_28 
DOCKED: REMARK   16  A    between atoms: CH_31  and  OH_32 
DOCKED: REMARK   17  A    between atoms: CH_31  and  CM_33 
DOCKED: USER                              x       y       z     vdW  Elec       q    Type
DOCKED: USER                           _______ _______ _______ _____ _____    ______ ____
DOCKED: ROOT
DOCKED: ATOM      1  CA  VAL J   3      -7.804   3.170   6.668 -0.25 -0.01    +0.180 C 
DOCKED: ENDROOT
DOCKED: BRANCH   1   2
DOCKED: ATOM      2  N   VAL J   3      -6.943   3.593   5.557 -0.14 -0.02    -0.346 N 
DOCKED: ATOM      3  H09 VAL J   3      -6.596   2.897   4.912 -0.48 +0.01    +0.163 HD
DOCKED: ATOM      4  C   VAL J   2      -6.609   4.855   5.376 -0.25 +0.03    +0.241 C 
DOCKED: ATOM      5  O   VAL J   2      -7.031   5.771   6.102 -0.17 +0.00    -0.271 OA
DOCKED: BRANCH   4   6
DOCKED: ATOM      6  CA  VAL J   2      -5.645   5.139   4.212 -0.31 +0.06    +0.180 C 
DOCKED: BRANCH   6   7
DOCKED: ATOM      7  N   VAL J   2      -6.241   6.274   3.517 -0.19 -0.11    -0.347 N 
DOCKED: ATOM      8  C   IVA J   1      -7.506   6.290   3.114 -0.31 +0.07    +0.218 C 
DOCKED: ATOM      9  O   IVA J   1      -8.230   5.301   3.260 -0.25 -0.09    -0.274 OA
DOCKED: ATOM     10  H10 VAL J   2      -5.666   7.085   3.334 +0.11 +0.04    +0.163 HD
DOCKED: BRANCH   8  11
DOCKED: ATOM     11  CA  IVA J   1      -8.023   7.557   2.460 -0.40 +0.03    +0.106 C 
DOCKED: BRANCH  11  12
DOCKED: ATOM     12  CB  IVA J   1      -7.315   7.913   1.138 -0.48 -0.00    -0.014 C 
DOCKED: ATOM     13  CG1 IVA J   1      -7.655   6.939   0.019 -0.47 +0.00    +0.010 C 
DOCKED: ATOM     14  CG2 IVA J   1      -7.564   9.326   0.628 -0.48 +0.00    +0.010 C 
DOCKED: ENDBRANCH  11  12
DOCKED: ENDBRANCH   8  11
DOCKED: ENDBRANCH   6   7
DOCKED: BRANCH   6  15
DOCKED: ATOM     15  CB  VAL J   2      -4.218   5.418   4.772 -0.44 +0.00    +0.009 C 
DOCKED: ATOM     16  CG1 VAL J   2      -3.579   6.682   4.162 -0.48 +0.00    +0.012 C 
DOCKED: ATOM     17  CG2 VAL J   2      -4.243   5.531   6.304 -0.40 -0.00    +0.012 C 
DOCKED: ENDBRANCH   6  15
DOCKED: ENDBRANCH   4   6
DOCKED: ENDBRANCH   1   2
DOCKED: BRANCH   1  18
DOCKED: ATOM     18  C   VAL J   3      -9.180   3.796   6.453 -0.21 +0.02    +0.241 C 
DOCKED: ATOM     19  N   STA J   4      -9.565   4.049   5.188 -0.09 -0.07    -0.352 N 
DOCKED: ATOM     20  H09 STA J   4      -8.932   3.850   4.426 +0.09 +0.05    +0.163 HD
DOCKED: ATOM     21  O   VAL J   3      -9.894   4.004   7.427 -0.20 -0.02    -0.271 OA
DOCKED: BRANCH  19  22
DOCKED: ATOM     22  CA  STA J   4     -10.889   4.608   4.899 -0.27 +0.03    +0.113 C 
DOCKED: BRANCH  22  23
DOCKED: ATOM     23  CB  STA J   4     -11.994   3.809   5.602 -0.34 +0.01    +0.031 C 
DOCKED: BRANCH  23  24
DOCKED: ATOM     24  CG  STA J   4     -13.410   4.327   5.291 -0.27 -0.01    -0.021 C 
DOCKED: ATOM     25  CD1 STA J   4     -14.088   4.941   6.513 -0.28 +0.00    +0.009 C 
DOCKED: ATOM     26  CD2 STA J   4     -14.315   3.229   4.710 -0.25 +0.00    +0.009 C 
DOCKED: ENDBRANCH  23  24
DOCKED: ENDBRANCH  22  23
DOCKED: BRANCH  22  27
DOCKED: ATOM     27  CH  STA J   4     -10.854   6.133   5.183 -0.18 +0.04    +0.145 C 
DOCKED: BRANCH  27  28
DOCKED: ATOM     28  OH  STA J   4      -9.551   6.697   5.110 -0.48 -0.11    -0.393 OA
DOCKED: ATOM     29  H15 STA J   4      -8.907   6.059   5.427 -0.31 +0.01    +0.210 HD
DOCKED: ENDBRANCH  27  28
DOCKED: BRANCH  27  30
DOCKED: ATOM     30  CM  STA J   4     -11.772   6.876   4.232 -0.29 +0.03    +0.097 C 
DOCKED: BRANCH  30  31
DOCKED: ATOM     31  C   STA J   4     -11.135   7.202   2.894 -0.16 +0.08    +0.353 C 
DOCKED: BRANCH  31  32
DOCKED: ATOM     32  O   STA J   4     -10.818   6.189   1.965 +0.00 -0.02    -0.368 OA
DOCKED: ATOM     33  H03 STA J   4     -10.257   5.532   2.385 -0.29 -0.01    +0.212 HD
DOCKED: ENDBRANCH  31  32
DOCKED: BRANCH  31  34
DOCKED: ATOM     34  N   ALA J   5     -10.759   8.472   2.760 -0.13 +0.01    +0.107 N 
DOCKED: ATOM     35  H01 ALA J   5     -10.431   8.823   3.649 -0.35 +0.06    +0.316 HD
DOCKED: ATOM     36  H18 ALA J   5     -11.545   9.024   2.450 -0.27 -0.01    +0.316 HD
DOCKED: ENDBRANCH  31  34
DOCKED: ENDBRANCH  30  31
DOCKED: ENDBRANCH  27  30
DOCKED: ENDBRANCH  22  27
DOCKED: ENDBRANCH  19  22
DOCKED: ENDBRANCH   1  18
DOCKED: BRANCH   1  37
DOCKED: ATOM     37  CB  VAL J   3      -7.202   3.657   8.021 -0.40 -0.00    +0.009 C 
DOCKED: ATOM     38  CG1 VAL J   3      -7.806   2.931   9.211 -0.52 -0.00    +0.012 C 
DOCKED: ATOM     39  CG2 VAL J   3      -5.678   3.488   8.032 -0.34 -0.00    +0.012 C 
DOCKED: ENDBRANCH   1  37
DOCKED: TORSDOF 17
DOCKED: TER
DOCKED: ENDMDL
________________________________________________________________________________

DPF> analysis                             # perform a ranked cluster analysis


		CLUSTER ANALYSIS OF CONFORMATIONS
		_________________________________

Number of conformations = 10

RMSD cluster analysis will be performed using the ligand atoms only (39 / 39 total atoms).

Outputting structurally similar clusters, ranked in order of increasing energy.


________________________________________________________________________________

Number of distinct conformational clusters found = 5,  out of 10 runs,
Using an rmsd-tolerance of 2.0 A


	CLUSTERING HISTOGRAM
	____________________

________________________________________________________________________________
     |           |     |           |     |                                    
Clus | Lowest    | Run | Mean      | Num | Histogram                          
-ter | Binding   |     | Binding   | in  |                                    
Rank | Energy    |     | Energy    | Clus|    5    10   15   20   25   30   35
_____|___________|_____|___________|_____|____:____|____:____|____:____|____:___
   1 |     -6.65 |   9 |     -5.91 |   3 |###
   2 |     -6.07 |   5 |     -4.49 |   4 |####
   3 |     -5.01 |   6 |     -5.01 |   1 |#
   4 |     -3.83 |   8 |     -3.83 |   1 |#
   5 |     -3.61 |   1 |     -3.61 |   1 |#
_____|___________|_____|___________|_____|______________________________________


Number of multi-member conformational clusters found = 2, out of 10 runs.

	RMSD TABLE
	__________

_____________________________________________________________________
     |      |      |           |         |                 |
Rank | Sub- | Run  | Binding   | Cluster | Reference       | Grep
     | Rank |      | Energy    | RMSD    | RMSD            | Pattern
_____|______|______|___________|_________|_________________|___________
   1      1      9       -6.65      0.00      1.67           RANKING
   1      2     10       -5.73      1.98      2.07           RANKING
   1      3      3       -5.36      1.97      2.18           RANKING
   2      1      5       -6.07      0.00      2.71           RANKING
   2      2      7       -4.67      1.94      1.90           RANKING
   2      3      4       -3.99      1.95      2.16           RANKING
   2      4      2       -3.21      1.95      2.35           RANKING
   3      1      6       -5.01      0.00      1.98           RANKING
   4      1      8       -3.83      0.00      2.28           RANKING
   5      1      1       -3.61      0.00      2.87           RANKING
_______________________________________________________________________



	INFORMATION ENTROPY ANALYSIS FOR THIS CLUSTERING
	________________________________________________


Information entropy for this clustering = 0.62  (rmstol = 2.00 Angstrom)

_______________________________________________________________________


	STATISTICAL MECHANICAL ANALYSIS
	_______________________________


Partition function, Q =    10.08            at Temperature, T = 298.15 K
Free energy,        A ~ -1369.05 kcal/mol   at Temperature, T = 298.15 K
Internal energy,    U =    -4.82 kcal/mol   at Temperature, T = 298.15 K
Entropy,            S =     4.58 kcal/mol/K at Temperature, T = 298.15 K

_______________________________________________________________________


	LOWEST ENERGY DOCKED CONFORMATION from EACH CLUSTER
	___________________________________________________



Keeping original residue number (specified in the input PDBQ file) for outputting.

MODEL        9
USER    Run = 9
USER    Cluster Rank = 1
USER    Number of conformations in this cluster = 3
USER  
USER    RMSD from reference structure       = 1.673 A
USER  
USER    Estimated Free Energy of Binding    =   -6.65 kcal/mol  [=(1)+(2)+(3)-(4)]
USER    Estimated Inhibition Constant, Ki   =   13.35 uM (micromolar)  [Temperature = 298.15 K]
USER    
USER    (1) Final Intermolecular Energy     =  -11.72 kcal/mol
USER        vdW + Hbond + desolv Energy     =  -11.76 kcal/mol
USER        Electrostatic Energy            =   +0.04 kcal/mol
USER    (2) Final Total Internal Energy     =   -4.68 kcal/mol
USER    (3) Torsional Free Energy           =   +5.07 kcal/mol
USER    (4) Unbound System's Energy  [=(2)] =   -4.68 kcal/mol
USER    
USER    
USER  
USER    DPF = dock.dpf
USER    NEWDPF move	lig3sm1_fixed.pdbqt
USER    NEWDPF about	-9.499000 5.878000 4.011000
USER    NEWDPF tran0	-10.600872 5.450240 4.613528
USER    NEWDPF axisangle0	0.043623 0.070103 0.996585 28.533467
USER    NEWDPF quaternion0	0.010750 0.017276 0.245595 0.969159
USER    NEWDPF dihe0	-24.10 180.00 -16.94 43.51 -42.83 -9.67 -11.38 -70.70 -166.24 107.08 83.73 68.11 122.80 179.95 -104.05 12.95 15.06 
USER  
USER                              x       y       z    vdW   Elec        q     RMS 
ATOM      1  CA  VAL J   3     -10.960   4.876   4.845 -0.23 +0.04    +0.180     1.673
ATOM      2  N   VAL J   3      -9.910   4.519   5.808 -0.12 -0.05    -0.346     1.673
ATOM      3  H09 VAL J   3      -9.797   5.081   6.641 -0.44 -0.02    +0.163     1.673
ATOM      4  C   VAL J   2      -9.112   3.489   5.619 -0.22 +0.04    +0.241     1.673
ATOM      5  O   VAL J   2      -9.218   2.729   4.642 -0.22 -0.10    -0.271     1.673
ATOM      6  CA  VAL J   2      -8.015   3.280   6.677 -0.26 -0.00    +0.180     1.673
ATOM      7  N   VAL J   2      -7.250   4.521   6.657 -0.09 +0.02    -0.347     1.673
ATOM      8  C   IVA J   1      -6.474   4.874   5.640 -0.26 +0.02    +0.218     1.673
ATOM      9  O   IVA J   1      -6.315   4.123   4.674 -0.80 -0.09    -0.274     1.673
ATOM     10  H10 VAL J   2      -7.315   5.141   7.453 -0.46 -0.03    +0.163     1.673
ATOM     11  CA  IVA J   1      -5.782   6.222   5.714 -0.34 +0.01    +0.106     1.673
ATOM     12  CB  IVA J   1      -5.230   6.717   4.363 -0.47 -0.00    -0.014     1.673
ATOM     13  CG1 IVA J   1      -3.918   6.038   3.991 -0.56 +0.00    +0.010     1.673
ATOM     14  CG2 IVA J   1      -6.183   6.583   3.184 -0.51 +0.00    +0.010     1.673
ATOM     15  CB  VAL J   2      -8.672   2.962   8.054 -0.46 +0.00    +0.009     1.673
ATOM     16  CG1 VAL J   2      -8.870   1.450   8.281 -0.56 +0.00    +0.012     1.673
ATOM     17  CG2 VAL J   2      -7.850   3.562   9.205 -0.50 +0.00    +0.012     1.673
ATOM     18  C   VAL J   3     -10.549   6.184   4.175 -0.23 +0.06    +0.241     1.673
ATOM     19  N   STA J   4     -11.079   6.467   2.970 -0.09 -0.07    -0.352     1.673
ATOM     20  H09 STA J   4     -11.701   5.803   2.533 -0.03 +0.02    +0.163     1.673
ATOM     21  O   VAL J   3      -9.792   6.942   4.772 -0.71 -0.11    -0.271     1.673
ATOM     22  CA  STA J   4     -10.766   7.724   2.284 -0.27 +0.02    +0.113     1.673
ATOM     23  CB  STA J   4      -9.256   7.998   2.289 -0.40 +0.01    +0.031     1.673
ATOM     24  CG  STA J   4      -8.696   8.341   0.896 -0.41 -0.01    -0.021     1.673
ATOM     25  CD1 STA J   4      -7.955   7.168   0.259 -0.44 +0.00    +0.009     1.673
ATOM     26  CD2 STA J   4      -7.769   9.566   0.929 -0.52 +0.00    +0.009     1.673
ATOM     27  CH  STA J   4     -11.460   7.716   0.896 -0.17 +0.03    +0.145     1.673
ATOM     28  OH  STA J   4     -10.980   6.700   0.024 -0.04 -0.09    -0.393     1.673
ATOM     29  H15 STA J   4     -10.970   5.859   0.487 -0.32 +0.01    +0.210     1.673
ATOM     30  CM  STA J   4     -12.962   7.571   1.049 -0.10 +0.02    +0.097     1.673
ATOM     31  C   STA J   4     -13.480   6.185   0.717 -0.05 +0.09    +0.353     1.673
ATOM     32  O   STA J   4     -12.835   5.025   1.195 -0.12 -0.07    -0.368     1.673
ATOM     33  H03 STA J   4     -12.200   4.720   0.542 -0.52 +0.03    +0.212     1.673
ATOM     34  N   ALA J   5     -14.466   6.168  -0.177 -0.03 +0.03    +0.107     1.673
ATOM     35  H01 ALA J   5     -14.088   6.331  -1.100 +0.02 +0.09    +0.316     1.673
ATOM     36  H18 ALA J   5     -15.135   6.890   0.045 +0.02 +0.09    +0.316     1.673
ATOM     37  CB  VAL J   3     -12.319   5.059   5.586 -0.31 +0.00    +0.009     1.673
ATOM     38  CG1 VAL J   3     -13.280   5.944   4.809 -0.21 +0.00    +0.012     1.673
ATOM     39  CG2 VAL J   3     -12.976   3.702   5.865 -0.31 +0.00    +0.012     1.673
TER
ENDMDL
MODEL        5
USER    Run = 5
USER    Cluster Rank = 2
USER    Number of conformations in this cluster = 4
USER  
USER    RMSD from reference structure       = 2.712 A
USER  
USER    Estimated Free Energy of Binding    =   -6.07 kcal/mol  [=(1)+(2)+(3)-(4)]
USER    Estimated Inhibition Constant, Ki   =   35.29 uM (micromolar)  [Temperature = 298.15 K]
USER    
USER    (1) Final Intermolecular Energy     =  -11.15 kcal/mol
USER        vdW + Hbond + desolv Energy     =  -11.05 kcal/mol
USER        Electrostatic Energy            =   -0.10 kcal/mol
USER    (2) Final Total Internal Energy     =   -3.67 kcal/mol
USER    (3) Torsional Free Energy           =   +5.07 kcal/mol
USER    (4) Unbound System's Energy  [=(2)] =   -3.67 kcal/mol
USER    
USER    
USER  
USER    DPF = dock.dpf
USER    NEWDPF move	lig3sm1_fixed.pdbqt
USER    NEWDPF about	-9.499000 5.878000 4.011000
USER    NEWDPF tran0	-8.866402 4.357630 4.672150
USER    NEWDPF axisangle0	0.499135 0.767613 -0.402038 176.738588
USER    NEWDPF quaternion0	0.498933 0.767302 -0.401875 0.028457
USER    NEWDPF dihe0	180.00 -142.29 -2.57 -3.87 -136.05 66.38 -122.87 0.27 -36.91 -25.70 -99.91 -11.44 71.37 -46.15 155.15 6.34 -44.93 
USER  
USER                              x       y       z    vdW   Elec        q     RMS 
ATOM      1  CA  VAL J   3      -9.454   4.078   4.970 -0.24 +0.04    +0.180     2.712
ATOM      2  N   VAL J   3     -10.299   4.457   3.831 -0.07 -0.06    -0.346     2.712
ATOM      3  H09 VAL J   3     -10.140   4.019   2.934 -0.48 -0.01    +0.163     2.712
ATOM      4  C   VAL J   2     -11.260   5.351   3.944 -0.16 +0.05    +0.241     2.712
ATOM      5  O   VAL J   2     -11.542   5.900   5.022 -0.23 -0.08    -0.271     2.712
ATOM      6  CA  VAL J   2     -12.017   5.698   2.650 -0.09 +0.03    +0.180     2.712
ATOM      7  N   VAL J   2     -12.892   4.554   2.424 -0.05 -0.07    -0.347     2.712
ATOM      8  C   IVA J   1     -13.256   4.153   1.212 -0.07 +0.05    +0.218     2.712
ATOM      9  O   IVA J   1     -12.911   4.780   0.206 -0.46 -0.08    -0.274     2.712
ATOM     10  H10 VAL J   2     -13.236   4.043   3.225 +0.05 +0.04    +0.163     2.712
ATOM     11  CA  IVA J   1     -14.117   2.908   1.109 -0.11 +0.03    +0.106     2.712
ATOM     12  CB  IVA J   1     -13.316   1.608   0.905 -0.21 -0.01    -0.014     2.712
ATOM     13  CG1 IVA J   1     -12.560   1.595  -0.417 -0.19 +0.00    +0.010     2.712
ATOM     14  CG2 IVA J   1     -12.331   1.272   2.017 -0.33 +0.01    +0.010     2.712
ATOM     15  CB  VAL J   2     -12.774   7.048   2.834 -0.18 +0.00    +0.009     2.712
ATOM     16  CG1 VAL J   2     -11.916   8.117   3.539 -0.38 +0.00    +0.012     2.712
ATOM     17  CG2 VAL J   2     -13.276   7.584   1.485 -0.12 +0.00    +0.012     2.712
ATOM     18  C   VAL J   3      -8.019   4.472   4.633 -0.24 +0.06    +0.241     2.712
ATOM     19  N   STA J   4      -7.559   5.642   5.115 -0.13 -0.05    -0.352     2.712
ATOM     20  H09 STA J   4      -8.174   6.235   5.652 -0.30 -0.01    +0.163     2.712
ATOM     21  O   VAL J   3      -7.330   3.697   3.980 -0.77 -0.15    -0.271     2.712
ATOM     22  CA  STA J   4      -6.177   6.068   4.871 -0.35 +0.02    +0.113     2.712
ATOM     23  CB  STA J   4      -5.178   4.984   5.296 -0.40 +0.00    +0.031     2.712
ATOM     24  CG  STA J   4      -4.527   5.261   6.663 -0.38 +0.00    -0.021     2.712
ATOM     25  CD1 STA J   4      -3.853   4.024   7.251 -0.41 -0.00    +0.009     2.712
ATOM     26  CD2 STA J   4      -5.532   5.820   7.682 -0.40 +0.00    +0.009     2.712
ATOM     27  CH  STA J   4      -6.066   6.571   3.407 -0.41 +0.04    +0.145     2.712
ATOM     28  OH  STA J   4      -5.210   5.776   2.595 -0.80 -0.18    -0.393     2.712
ATOM     29  H15 STA J   4      -4.391   6.251   2.431 -0.21 +0.03    +0.210     2.712
ATOM     30  CM  STA J   4      -7.435   6.645   2.760 -0.40 +0.03    +0.097     2.712
ATOM     31  C   STA J   4      -8.297   7.782   3.278 -0.24 +0.10    +0.353     2.712
ATOM     32  O   STA J   4      -9.119   7.622   4.413 -0.60 -0.16    -0.368     2.712
ATOM     33  H03 STA J   4      -9.703   6.871   4.283 +0.10 +0.07    +0.212     2.712
ATOM     34  N   ALA J   5      -8.330   8.850   2.485 -0.38 +0.03    +0.107     2.712
ATOM     35  H01 ALA J   5      -9.209   9.333   2.606 -0.31 +0.01    +0.316     2.712
ATOM     36  H18 ALA J   5      -8.237   8.558   1.523 +0.20 +0.08    +0.316     2.712
ATOM     37  CB  VAL J   3      -9.543   2.540   5.208 -0.40 +0.00    +0.009     2.712
ATOM     38  CG1 VAL J   3      -9.431   1.753   3.913 -0.50 +0.01    +0.012     2.712
ATOM     39  CG2 VAL J   3      -8.461   2.075   6.190 -0.40 +0.00    +0.012     2.712
TER
ENDMDL
MODEL        6
USER    Run = 6
USER    Cluster Rank = 3
USER    Number of conformations in this cluster = 1
USER  
USER    RMSD from reference structure       = 1.980 A
USER  
USER    Estimated Free Energy of Binding    =   -5.01 kcal/mol  [=(1)+(2)+(3)-(4)]
USER    Estimated Inhibition Constant, Ki   =  211.31 uM (micromolar)  [Temperature = 298.15 K]
USER    
USER    (1) Final Intermolecular Energy     =  -10.08 kcal/mol
USER        vdW + Hbond + desolv Energy     =   -9.57 kcal/mol
USER        Electrostatic Energy            =   -0.52 kcal/mol
USER    (2) Final Total Internal Energy     =   -3.40 kcal/mol
USER    (3) Torsional Free Energy           =   +5.07 kcal/mol
USER    (4) Unbound System's Energy  [=(2)] =   -3.40 kcal/mol
USER    
USER    
USER  
USER    DPF = dock.dpf
USER    NEWDPF move	lig3sm1_fixed.pdbqt
USER    NEWDPF about	-9.499000 5.878000 4.011000
USER    NEWDPF tran0	-6.867329 5.240748 3.929802
USER    NEWDPF axisangle0	0.317872 -0.816306 -0.482288 -139.630697
USER    NEWDPF quaternion0	0.298350 -0.766173 -0.452668 -0.345047
USER    NEWDPF dihe0	-159.26 -148.38 -169.29 0.52 -156.02 13.74 -122.48 53.43 -16.99 -179.72 92.22 100.79 -155.88 180.00 -179.61 98.70 -34.28 
USER  
USER                              x       y       z    vdW   Elec        q     RMS 
ATOM      1  CA  VAL J   3      -6.929   5.096   3.231 +0.01 +0.09    +0.180     1.980
ATOM      2  N   VAL J   3      -8.351   4.749   3.356 -0.07 -0.11    -0.346     1.980
ATOM      3  H09 VAL J   3      -8.938   4.785   2.535 -0.34 +0.02    +0.163     1.980
ATOM      4  C   VAL J   2      -8.882   4.392   4.507 -0.22 +0.06    +0.241     1.980
ATOM      5  O   VAL J   2      -8.214   4.285   5.549 -0.18 -0.03    -0.271     1.980
ATOM      6  CA  VAL J   2     -10.397   4.125   4.500 -0.22 +0.04    +0.180     1.980
ATOM      7  N   VAL J   2     -10.983   5.378   4.038 -0.09 -0.08    -0.347     1.980
ATOM      8  C   IVA J   1     -10.502   6.568   4.379 -0.26 +0.07    +0.218     1.980
ATOM      9  O   IVA J   1      -9.556   6.668   5.164 -0.49 -0.07    -0.274     1.980
ATOM     10  H10 VAL J   2     -11.791   5.340   3.433 +0.04 +0.03    +0.163     1.980
ATOM     11  CA  IVA J   1     -11.163   7.795   3.779 -0.32 +0.03    +0.106     1.980
ATOM     12  CB  IVA J   1     -11.552   7.635   2.296 -0.26 -0.00    -0.014     1.980
ATOM     13  CG1 IVA J   1     -13.000   8.023   2.033 -0.18 +0.00    +0.010     1.980
ATOM     14  CG2 IVA J   1     -10.672   8.391   1.310 -0.28 +0.00    +0.010     1.980
ATOM     15  CB  VAL J   2     -10.707   2.905   3.581 -0.29 +0.00    +0.009     1.980
ATOM     16  CG1 VAL J   2      -9.786   1.702   3.864 -0.49 +0.01    +0.012     1.980
ATOM     17  CG2 VAL J   2     -12.178   2.481   3.710 -0.30 +0.01    +0.012     1.980
ATOM     18  C   VAL J   3      -6.444   5.561   4.601 -0.27 +0.06    +0.241     1.980
ATOM     19  N   STA J   4      -5.625   4.744   5.290 -0.15 -0.04    -0.352     1.980
ATOM     20  H09 STA J   4      -5.380   3.845   4.902 +0.02 +0.03    +0.163     1.980
ATOM     21  O   VAL J   3      -6.780   6.670   5.003 -0.23 -0.05    -0.271     1.980
ATOM     22  CA  STA J   4      -5.082   5.141   6.593 -0.32 -0.00    +0.113     1.980
ATOM     23  CB  STA J   4      -4.964   6.667   6.703 -0.40 +0.00    +0.031     1.980
ATOM     24  CG  STA J   4      -3.704   7.230   6.020 -0.47 -0.00    -0.021     1.980
ATOM     25  CD1 STA J   4      -3.953   8.582   5.358 -0.44 +0.00    +0.009     1.980
ATOM     26  CD2 STA J   4      -3.126   6.257   4.979 -0.46 +0.00    +0.009     1.980
ATOM     27  CH  STA J   4      -5.899   4.432   7.705 -0.28 -0.01    +0.145     1.980
ATOM     28  OH  STA J   4      -6.658   3.324   7.236 -0.11 +0.07    -0.393     1.980
ATOM     29  H15 STA J   4      -7.506   3.632   6.908 +0.12 -0.01    +0.210     1.980
ATOM     30  CM  STA J   4      -4.989   3.971   8.827 -0.29 -0.02    +0.097     1.980
ATOM     31  C   STA J   4      -4.553   2.523   8.707 -0.18 -0.27    +0.353     1.980
ATOM     32  O   STA J   4      -3.193   2.174   8.570 -0.24 +0.57    -0.368     1.980
ATOM     33  H03 STA J   4      -2.843   2.562   7.764 -0.40 -0.43    +0.212     1.980
ATOM     34  N   ALA J   5      -5.555   1.657   8.576 -0.32 -0.09    +0.107     1.980
ATOM     35  H01 ALA J   5      -5.668   1.416   7.602 -0.03 -0.28    +0.316     1.980
ATOM     36  H18 ALA J   5      -6.408   2.075   8.921 +0.22 -0.13    +0.316     1.980
ATOM     37  CB  VAL J   3      -6.753   6.239   2.186 -0.45 +0.00    +0.009     1.980
ATOM     38  CG1 VAL J   3      -7.763   7.357   2.383 -0.46 +0.00    +0.012     1.980
ATOM     39  CG2 VAL J   3      -5.331   6.812   2.239 -0.48 +0.00    +0.012     1.980
TER
ENDMDL
MODEL        8
USER    Run = 8
USER    Cluster Rank = 4
USER    Number of conformations in this cluster = 1
USER  
USER    RMSD from reference structure       = 2.278 A
USER  
USER    Estimated Free Energy of Binding    =   -3.83 kcal/mol  [=(1)+(2)+(3)-(4)]
USER    Estimated Inhibition Constant, Ki   =    1.55 mM (millimolar)  [Temperature = 298.15 K]
USER    
USER    (1) Final Intermolecular Energy     =   -8.90 kcal/mol
USER        vdW + Hbond + desolv Energy     =   -9.07 kcal/mol
USER        Electrostatic Energy            =   +0.16 kcal/mol
USER    (2) Final Total Internal Energy     =   -5.02 kcal/mol
USER    (3) Torsional Free Energy           =   +5.07 kcal/mol
USER    (4) Unbound System's Energy  [=(2)] =   -5.02 kcal/mol
USER    
USER    
USER  
USER    DPF = dock.dpf
USER    NEWDPF move	lig3sm1_fixed.pdbqt
USER    NEWDPF about	-9.499000 5.878000 4.011000
USER    NEWDPF tran0	-10.749197 6.519708 3.637079
USER    NEWDPF axisangle0	-0.850913 0.393438 -0.348071 177.653655
USER    NEWDPF quaternion0	-0.850734 0.393356 -0.347998 0.020474
USER    NEWDPF dihe0	-96.03 -179.59 -18.45 -66.98 -16.99 29.84 -151.86 20.64 20.54 125.62 -179.73 59.04 160.55 45.17 -39.75 -20.02 -178.91 
USER  
USER                              x       y       z    vdW   Elec        q     RMS 
ATOM      1  CA  VAL J   3     -10.170   6.940   3.609 -0.31 +0.05    +0.180     2.278
ATOM      2  N   VAL J   3      -9.253   5.795   3.556 -0.12 -0.08    -0.346     2.278
ATOM      3  H09 VAL J   3      -9.504   4.990   3.000 -0.22 +0.02    +0.163     2.278
ATOM      4  C   VAL J   2      -8.111   5.787   4.213 -0.26 +0.06    +0.241     2.278
ATOM      5  O   VAL J   2      -7.716   6.756   4.883 -0.28 -0.05    -0.271     2.278
ATOM      6  CA  VAL J   2      -7.286   4.492   4.119 -0.21 +0.07    +0.180     2.278
ATOM      7  N   VAL J   2      -5.974   4.859   4.641 -0.17 -0.09    -0.347     2.278
ATOM      8  C   IVA J   1      -5.073   5.520   3.925 -0.36 +0.06    +0.218     2.278
ATOM      9  O   IVA J   1      -5.287   5.806   2.744 -0.90 -0.11    -0.274     2.278
ATOM     10  H10 VAL J   2      -5.742   4.599   5.589 +0.09 +0.01    +0.163     2.278
ATOM     11  CA  IVA J   1      -3.771   5.899   4.606 -0.44 +0.01    +0.106     2.278
ATOM     12  CB  IVA J   1      -3.910   7.041   5.631 -0.48 -0.00    -0.014     2.278
ATOM     13  CG1 IVA J   1      -3.952   8.411   4.969 -0.48 +0.00    +0.010     2.278
ATOM     14  CG2 IVA J   1      -5.106   6.931   6.567 -0.41 +0.00    +0.010     2.278
ATOM     15  CB  VAL J   2      -7.994   3.362   4.925 -0.40 +0.00    +0.009     2.278
ATOM     16  CG1 VAL J   2      -9.002   3.912   5.955 -0.35 +0.00    +0.012     2.278
ATOM     17  CG2 VAL J   2      -8.696   2.372   3.983 -0.49 +0.01    +0.012     2.278
ATOM     18  C   VAL J   3     -11.595   6.393   3.598 -0.17 +0.06    +0.241     2.278
ATOM     19  N   STA J   4     -11.845   5.304   2.845 -0.04 -0.05    -0.352     2.278
ATOM     20  H09 STA J   4     -11.102   4.902   2.291 -0.50 -0.04    +0.163     2.278
ATOM     21  O   VAL J   3     -12.441   6.932   4.301 -0.18 -0.09    -0.271     2.278
ATOM     22  CA  STA J   4     -13.178   4.695   2.818 -0.11 +0.03    +0.113     2.278
ATOM     23  CB  STA J   4     -13.843   4.876   1.446 -0.09 +0.01    +0.031     2.278
ATOM     24  CG  STA J   4     -13.665   6.291   0.867 -0.08 -0.01    -0.021     2.278
ATOM     25  CD1 STA J   4     -14.594   7.310   1.520 -0.05 +0.00    +0.009     2.278
ATOM     26  CD2 STA J   4     -13.870   6.323  -0.656 -0.06 +0.00    +0.009     2.278
ATOM     27  CH  STA J   4     -13.067   3.239   3.343 -0.18 +0.05    +0.145     2.278
ATOM     28  OH  STA J   4     -11.780   2.662   3.156 -0.19 -0.14    -0.393     2.278
ATOM     29  H15 STA J   4     -11.324   3.118   2.444 -0.38 +0.01    +0.210     2.278
ATOM     30  CM  STA J   4     -13.434   3.170   4.812 -0.25 +0.03    +0.097     2.278
ATOM     31  C   STA J   4     -13.635   4.528   5.458 -0.13 +0.11    +0.353     2.278
ATOM     32  O   STA J   4     -14.669   5.393   5.044 -0.04 -0.10    -0.368     2.278
ATOM     33  H03 STA J   4     -14.338   5.987   4.366 +0.06 +0.06    +0.212     2.278
ATOM     34  N   ALA J   5     -12.670   4.881   6.305 -0.26 +0.04    +0.107     2.278
ATOM     35  H01 ALA J   5     -12.185   5.691   5.945 +0.15 +0.12    +0.316     2.278
ATOM     36  H18 ALA J   5     -12.018   4.117   6.410 +0.16 +0.11    +0.316     2.278
ATOM     37  CB  VAL J   3      -9.942   7.860   2.372 -0.37 +0.00    +0.009     2.278
ATOM     38  CG1 VAL J   3      -9.157   7.161   1.275 -0.33 +0.00    +0.012     2.278
ATOM     39  CG2 VAL J   3     -11.278   8.362   1.811 -0.23 +0.00    +0.012     2.278
TER
ENDMDL
MODEL        1
USER    Run = 1
USER    Cluster Rank = 5
USER    Number of conformations in this cluster = 1
USER  
USER    RMSD from reference structure       = 2.865 A
USER  
USER    Estimated Free Energy of Binding    =   -3.61 kcal/mol  [=(1)+(2)+(3)-(4)]
USER    Estimated Inhibition Constant, Ki   =    2.25 mM (millimolar)  [Temperature = 298.15 K]
USER    
USER    (1) Final Intermolecular Energy     =   -8.68 kcal/mol
USER        vdW + Hbond + desolv Energy     =   -8.70 kcal/mol
USER        Electrostatic Energy            =   +0.01 kcal/mol
USER    (2) Final Total Internal Energy     =   -5.50 kcal/mol
USER    (3) Torsional Free Energy           =   +5.07 kcal/mol
USER    (4) Unbound System's Energy  [=(2)] =   -5.50 kcal/mol
USER    
USER    
USER  
USER    DPF = dock.dpf
USER    NEWDPF move	lig3sm1_fixed.pdbqt
USER    NEWDPF about	-9.499000 5.878000 4.011000
USER    NEWDPF tran0	-10.013663 3.362174 4.961652
USER    NEWDPF axisangle0	0.249133 0.911134 -0.328280 149.919281
USER    NEWDPF quaternion0	0.240598 0.879921 -0.317034 0.259499
USER    NEWDPF dihe0	41.03 -142.89 -1.32 115.50 -63.80 10.18 -128.79 179.87 -83.40 97.23 6.67 63.85 -3.71 -121.46 167.84 39.97 -57.23 
USER  
USER                              x       y       z    vdW   Elec        q     RMS 
ATOM      1  CA  VAL J   3     -10.302   2.781   5.266 -0.27 +0.06    +0.180     2.865
ATOM      2  N   VAL J   3     -11.664   3.166   4.877 -0.13 -0.12    -0.346     2.865
ATOM      3  H09 VAL J   3     -12.083   2.734   4.065 +0.07 +0.06    +0.163     2.865
ATOM      4  C   VAL J   2     -12.358   4.057   5.556 -0.22 +0.08    +0.241     2.865
ATOM      5  O   VAL J   2     -11.925   4.598   6.588 -0.25 -0.09    -0.271     2.865
ATOM      6  CA  VAL J   2     -13.744   4.410   4.991 -0.17 +0.05    +0.180     2.865
ATOM      7  N   VAL J   2     -13.868   3.585   3.795 -0.07 -0.11    -0.347     2.865
ATOM      8  C   IVA J   1     -13.213   3.843   2.670 -0.11 +0.06    +0.218     2.865
ATOM      9  O   IVA J   1     -12.502   4.846   2.565 -0.09 -0.04    -0.274     2.865
ATOM     10  H10 VAL J   2     -14.480   2.781   3.824 +0.03 +0.05    +0.163     2.865
ATOM     11  CA  IVA J   1     -13.379   2.870   1.517 -0.15 +0.03    +0.106     2.865
ATOM     12  CB  IVA J   1     -14.598   3.163   0.620 -0.08 -0.00    -0.014     2.865
ATOM     13  CG1 IVA J   1     -15.914   3.042   1.376 -0.05 +0.00    +0.010     2.865
ATOM     14  CG2 IVA J   1     -14.577   4.514  -0.081 -0.06 +0.00    +0.010     2.865
ATOM     15  CB  VAL J   2     -14.834   4.130   6.069 -0.25 +0.00    +0.009     2.865
ATOM     16  CG1 VAL J   2     -16.170   4.832   5.756 -0.11 +0.00    +0.012     2.865
ATOM     17  CG2 VAL J   2     -15.062   2.621   6.240 -0.28 +0.00    +0.012     2.865
ATOM     18  C   VAL J   3      -9.344   3.816   4.681 -0.21 +0.06    +0.241     2.865
ATOM     19  N   STA J   4      -9.128   4.942   5.387 -0.09 -0.03    -0.352     2.865
ATOM     20  H09 STA J   4      -9.620   5.086   6.257 -0.47 -0.01    +0.163     2.865
ATOM     21  O   VAL J   3      -8.780   3.568   3.622 -0.27 -0.11    -0.271     2.865
ATOM     22  CA  STA J   4      -8.188   5.963   4.911 -0.29 +0.02    +0.113     2.865
ATOM     23  CB  STA J   4      -6.928   5.321   4.313 -0.40 +0.01    +0.031     2.865
ATOM     24  CG  STA J   4      -5.657   6.162   4.530 -0.44 -0.00    -0.021     2.865
ATOM     25  CD1 STA J   4      -4.949   6.498   3.221 -0.59 +0.00    +0.009     2.865
ATOM     26  CD2 STA J   4      -4.663   5.475   5.480 -0.43 +0.00    +0.009     2.865
ATOM     27  CH  STA J   4      -8.955   6.954   3.998 -0.36 +0.04    +0.145     2.865
ATOM     28  OH  STA J   4      -8.208   8.118   3.666 -0.25 -0.13    -0.393     2.865
ATOM     29  H15 STA J   4      -8.027   8.125   2.723 +0.12 +0.06    +0.210     2.865
ATOM     30  CM  STA J   4      -9.403   6.270   2.721 -0.24 +0.02    +0.097     2.865
ATOM     31  C   STA J   4     -10.191   7.170   1.787 -0.14 +0.06    +0.353     2.865
ATOM     32  O   STA J   4      -9.888   8.542   1.661 -0.15 -0.05    -0.368     2.865
ATOM     33  H03 STA J   4      -9.920   8.958   2.526 -0.43 -0.01    +0.212     2.865
ATOM     34  N   ALA J   5     -11.265   6.597   1.249 -0.14 +0.02    +0.107     2.865
ATOM     35  H01 ALA J   5     -12.081   6.826   1.798 +0.08 +0.06    +0.316     2.865
ATOM     36  H18 ALA J   5     -11.139   5.595   1.233 -0.40 -0.06    +0.316     2.865
ATOM     37  CB  VAL J   3      -9.968   1.367   4.702 -0.45 +0.00    +0.009     2.865
ATOM     38  CG1 VAL J   3     -10.518   1.166   3.300 -0.47 +0.01    +0.012     2.865
ATOM     39  CG2 VAL J   3      -8.454   1.122   4.703 -0.48 +0.01    +0.012     2.865
TER
ENDMDL


AVSFLD: # AVS field file
AVSFLD: #
AVSFLD: # Created by AutoDock
AVSFLD: #
AVSFLD: ndim=2           # number of dimensions in the field
AVSFLD: nspace=1         # number of physical coordinates
AVSFLD: veclen=7         # vector size
AVSFLD: dim1=39          # atoms
AVSFLD: dim2=5           # conformations
AVSFLD: data=Real       # data type (byte,integer,Real,double)
AVSFLD: field=uniform    # field coordinate layout
AVSFLD: label= x y z vdW Elec q RMS
AVSFLD: variable 1 file = dock.dlg.pdb filetype = ascii offset = 5 stride = 12
AVSFLD: variable 2 file = dock.dlg.pdb filetype = ascii offset = 6 stride = 12
AVSFLD: variable 3 file = dock.dlg.pdb filetype = ascii offset = 7 stride = 12
AVSFLD: variable 4 file = dock.dlg.pdb filetype = ascii offset = 8 stride = 12
AVSFLD: variable 5 file = dock.dlg.pdb filetype = ascii offset = 9 stride = 12
AVSFLD: variable 6 file = dock.dlg.pdb filetype = ascii offset = 10 stride = 12
AVSFLD: variable 7 file = dock.dlg.pdb filetype = ascii offset = 11 stride = 12
AVSFLD: # end of file

>>> Closing the docking parameter file (DPF)...
This docking finished at:			9:09 31" p.m., 12/15/2025


________________________________________________________________________________

.\autodock4.exe: Successful Completion on "LAPTOP-PFTQOH6G"

Real= 9m 50.75s,  CPU= 2m 16.72s,  System= 1.09s
________________________________________________________________________________

