          AutoDock 4.2 Release 4.2.6   
         (C) 1989-2012 The Scripps Research Institute
        AutoDock comes with ABSOLUTELY NO WARRANTY.
        AutoDock is free software, and you are welcome
        to redistribute it under certain conditions;
        for details type 'autodock4 -C'

                     main.cc  $Revision: 1.213 $

                   Compiled on Jul 18 2014 at 15:34:58


This file was created at:			0:42 00" a.m., 11/25/2025
                   on host:		"LAPTOP-PFTQOH6G"
Current Working Directory = "C:\Program Files (x86)\Docking\November 25\2411 Docking\3SM1"

      ________________________________________________________________

                   SETTING UP DEFAULT PARAMETER LIBRARY
      ________________________________________________________________


Random number generator was seeded with values 1120, 1764020520.
Docking parameter file (DPF) used for this docking:		dock.dpf
DPF> autodock_parameter_version 4.2       # used by autodock to validate parameter set

	Autodock parameter version 4.2.
DPF> outlev 1                             # diagnostic output level

Output Level = 1  ADT-COMPATIBLE OUTPUT DURING DOCKING.
DPF> intelec                              # calculate internal electrostatics

Electrostatic energies will be calculated for all non-bonds between moving atoms.
DPF> seed pid time                        # seeds for random generator

Random number generator was seeded with values 1120, 1764020520.
DPF> ligand_types C HD OA N               # atoms types in ligand

DPF> fld 3sm1.maps.fld                    # grid_data_file

Opening Grid Map Dimensions file:		3sm1.maps.fld
Grid Point Spacing =				0.375 Angstroms

Even Number of User-specified Grid Points =	28 x-points
						22 y-points
						28 z-points

Coordinates of Central Grid Point of Maps =	(0.426, 3.144, 18.328)
Macromolecule file used to create Grid Maps =	3sm1.pdbqt
Grid Parameter file used to create Grid Maps =	grid.gpf
Minimum coordinates in grid = (-4.824, -0.981, 13.078)
Maximum coordinates in grid = (5.676, 7.269, 23.578)

DPF> map 3sm1.C.map                       # atom-specific affinity map

DPF> map 3sm1.HD.map                      # atom-specific affinity map

DPF> map 3sm1.OA.map                      # atom-specific affinity map

DPF> map 3sm1.N.map                       # atom-specific affinity map

DPF> elecmap 3sm1.e.map                   # electrostatics map

DPF> desolvmap 3sm1.d.map                 # desolvation map

DPF> move lig3sm1.pdbqt                   # small molecule

1,4-interactions will be _ignored_ in the non-bonded internal energy calculation.

Ligand PDBQT file = "lig3sm1.pdbqt"

INPUT LIGAND PDBQT FILE:
________________________

INPUT-LIGAND-PDBQT: REMARK  19 active torsions:
INPUT-LIGAND-PDBQT: REMARK  status: ('A' for Active; 'I' for Inactive)
INPUT-LIGAND-PDBQT: REMARK    1  A    between atoms: N_1  and  CA_5 
INPUT-LIGAND-PDBQT: REMARK    2  A    between atoms: CA_5  and  C_6 
INPUT-LIGAND-PDBQT: REMARK    3  A    between atoms: CA_5  and  CB_8 
INPUT-LIGAND-PDBQT: REMARK       I    between atoms: C_6  and  N_11 
INPUT-LIGAND-PDBQT: REMARK    4  A    between atoms: N_11  and  CA_13 
INPUT-LIGAND-PDBQT: REMARK    5  A    between atoms: CA_13  and  C_14 
INPUT-LIGAND-PDBQT: REMARK    6  A    between atoms: CA_13  and  CB_16 
INPUT-LIGAND-PDBQT: REMARK       I    between atoms: C_14  and  N_19 
INPUT-LIGAND-PDBQT: REMARK    7  A    between atoms: N_19  and  CA_21 
INPUT-LIGAND-PDBQT: REMARK    8  A    between atoms: CA_21  and  CB_28 
INPUT-LIGAND-PDBQT: REMARK    9  A    between atoms: CA_21  and  CH@A_32 
INPUT-LIGAND-PDBQT: REMARK   10  A    between atoms: CA_21  and  CH@B_33 
INPUT-LIGAND-PDBQT: REMARK   11  A    between atoms: C@A_22  and  O@A_24 
INPUT-LIGAND-PDBQT: REMARK   12  A    between atoms: C@A_22  and  CM@A_38 
INPUT-LIGAND-PDBQT: REMARK   13  A    between atoms: C@B_23  and  O@B_26 
INPUT-LIGAND-PDBQT: REMARK   14  A    between atoms: C@B_23  and  CM@B_39 
INPUT-LIGAND-PDBQT: REMARK   15  A    between atoms: CB_28  and  CG_29 
INPUT-LIGAND-PDBQT: REMARK   16  A    between atoms: CH@A_32  and  OH@A_34 
INPUT-LIGAND-PDBQT: REMARK   17  A    between atoms: CH@A_32  and  CM@A_38 
INPUT-LIGAND-PDBQT: REMARK   18  A    between atoms: CH@B_33  and  OH@B_36 
INPUT-LIGAND-PDBQT: REMARK   19  A    between atoms: CH@B_33  and  CM@B_39 
INPUT-LIGAND-PDBQT: ROOT
INPUT-LIGAND-PDBQT: ATOM      1  C   VAL M   3       0.536   2.861  18.416  1.00 25.12     0.241 C 
INPUT-LIGAND-PDBQT: ATOM      2  O   VAL M   3      -0.304   3.728  18.696  1.00 21.94    -0.271 OA
INPUT-LIGAND-PDBQT: HETATM    3  N   STA M   4       1.102   2.124  19.386  1.00 28.68    -0.345 N 
INPUT-LIGAND-PDBQT: ATOM      4  HN  STA M   4       1.726   1.343  19.184  1.00  0.00     0.163 HD
INPUT-LIGAND-PDBQT: ENDROOT
INPUT-LIGAND-PDBQT: BRANCH   3   5
INPUT-LIGAND-PDBQT: HETATM    5  CA  STA M   4       0.762   2.519  20.748  1.00 34.45     0.085 C 
INPUT-LIGAND-PDBQT: BRANCH   5   6
INPUT-LIGAND-PDBQT: HETATM    6  CB  STA M   4       0.583   1.242  21.591  1.00 35.26     0.040 C 
INPUT-LIGAND-PDBQT: BRANCH   6   7
INPUT-LIGAND-PDBQT: HETATM    7  CG  STA M   4      -0.883   0.836  21.459  1.00 36.77    -0.020 C 
INPUT-LIGAND-PDBQT: HETATM    8  CD1 STA M   4      -1.189  -0.402  22.265  1.00 35.37     0.009 C 
INPUT-LIGAND-PDBQT: HETATM    9  CD2 STA M   4      -1.389   0.659  20.022  1.00 37.75     0.009 C 
INPUT-LIGAND-PDBQT: ENDBRANCH   6   7
INPUT-LIGAND-PDBQT: ENDBRANCH   5   6
INPUT-LIGAND-PDBQT: BRANCH   5  10
INPUT-LIGAND-PDBQT: HETATM   10  CH ASTA M   4       1.706   3.523  21.438  0.50 35.82     0.150 C 
INPUT-LIGAND-PDBQT: BRANCH  10  11
INPUT-LIGAND-PDBQT: HETATM   11  OH ASTA M   4       2.038   3.083  22.745  0.50 41.95    -0.393 OA
INPUT-LIGAND-PDBQT: ATOM     12  HH ASTA M   4       2.620   3.702  23.170  1.00  0.00     0.210 HD
INPUT-LIGAND-PDBQT: ENDBRANCH  10  11
INPUT-LIGAND-PDBQT: BRANCH  10  13
INPUT-LIGAND-PDBQT: HETATM   13  CM ASTA M   4       2.980   3.790  20.645  0.50 34.53     0.060 C 
INPUT-LIGAND-PDBQT: BRANCH  13  14
INPUT-LIGAND-PDBQT: HETATM   14  C  ASTA M   4       3.996   4.711  21.295  0.50 36.22     0.166 C 
INPUT-LIGAND-PDBQT: BRANCH  14  15
INPUT-LIGAND-PDBQT: HETATM   15  O  ASTA M   4       3.976   6.086  20.983  0.50 37.14    -0.401 OA
INPUT-LIGAND-PDBQT: ATOM     16  H  ASTA M   4       4.612   6.663  21.390  1.00  0.00     0.209 HD
INPUT-LIGAND-PDBQT: ENDBRANCH  14  15
INPUT-LIGAND-PDBQT: ENDBRANCH  13  14
INPUT-LIGAND-PDBQT: ENDBRANCH  10  13
INPUT-LIGAND-PDBQT: ENDBRANCH   5  10
INPUT-LIGAND-PDBQT: BRANCH   5  17
INPUT-LIGAND-PDBQT: HETATM   17  CH BSTA M   4       1.822   3.558  21.067  0.50 34.81     0.150 C 
INPUT-LIGAND-PDBQT: BRANCH  17  18
INPUT-LIGAND-PDBQT: HETATM   18  OH BSTA M   4       1.672   4.067  22.379  0.50 41.78    -0.393 OA
INPUT-LIGAND-PDBQT: ATOM     19  HH BSTA M   4       2.335   4.717  22.579  1.00  0.00     0.210 HD
INPUT-LIGAND-PDBQT: ENDBRANCH  17  18
INPUT-LIGAND-PDBQT: BRANCH  17  20
INPUT-LIGAND-PDBQT: HETATM   20  CM BSTA M   4       3.159   2.889  20.841  0.50 33.70     0.060 C 
INPUT-LIGAND-PDBQT: BRANCH  20  21
INPUT-LIGAND-PDBQT: HETATM   21  C  BSTA M   4       3.930   3.056  19.543  0.50 33.30     0.166 C 
INPUT-LIGAND-PDBQT: BRANCH  21  22
INPUT-LIGAND-PDBQT: HETATM   22  O  BSTA M   4       4.887   2.070  19.299  0.50 31.97    -0.401 OA
INPUT-LIGAND-PDBQT: ATOM     23  H  BSTA M   4       5.369   2.174  18.487  1.00  0.00     0.209 HD
INPUT-LIGAND-PDBQT: ENDBRANCH  21  22
INPUT-LIGAND-PDBQT: ENDBRANCH  20  21
INPUT-LIGAND-PDBQT: ENDBRANCH  17  20
INPUT-LIGAND-PDBQT: ENDBRANCH   5  17
INPUT-LIGAND-PDBQT: ENDBRANCH   3   5
INPUT-LIGAND-PDBQT: BRANCH   1  24
INPUT-LIGAND-PDBQT: ATOM     24  CA  VAL M   3       0.971   2.693  16.962  1.00 22.88     0.180 C 
INPUT-LIGAND-PDBQT: BRANCH  24  25
INPUT-LIGAND-PDBQT: ATOM     25  N   VAL M   3      -0.244   2.836  16.215  1.00 22.87    -0.346 N 
INPUT-LIGAND-PDBQT: ATOM     26  C   VAL M   2      -0.712   1.915  15.387  1.00 20.50     0.249 C 
INPUT-LIGAND-PDBQT: ATOM     27  O   VAL M   2      -0.068   0.905  15.099  1.00 16.63    -0.271 OA
INPUT-LIGAND-PDBQT: ATOM     28  HN  VAL M   3      -0.779   3.697  16.328  1.00  0.00     0.163 HD
INPUT-LIGAND-PDBQT: BRANCH  26  29
INPUT-LIGAND-PDBQT: ATOM     29  CA  VAL M   2      -2.065   2.227  14.705  1.00 21.19     0.278 C 
INPUT-LIGAND-PDBQT: BRANCH  29  30
INPUT-LIGAND-PDBQT: ATOM     30  N   VAL M   2      -1.824   2.195  13.265  1.00 26.85    -0.066 N 
INPUT-LIGAND-PDBQT: ATOM     31  HN3 VAL M   2      -1.071   2.815  12.968  1.00  0.00     0.275 HD
INPUT-LIGAND-PDBQT: ATOM     32  HN2 VAL M   2      -1.404   1.322  12.946  1.00  0.00     0.275 HD
INPUT-LIGAND-PDBQT: ATOM     33  HN1 VAL M   2      -2.716   2.401  12.815  1.00  0.00     0.275 HD
INPUT-LIGAND-PDBQT: ENDBRANCH  29  30
INPUT-LIGAND-PDBQT: BRANCH  29  34
INPUT-LIGAND-PDBQT: ATOM     34  CB  VAL M   2      -3.360   1.558  15.247  1.00 23.85     0.017 C 
INPUT-LIGAND-PDBQT: ATOM     35  CG1 VAL M   2      -4.289   0.893  14.201  1.00 29.73     0.012 C 
INPUT-LIGAND-PDBQT: ATOM     36  CG2 VAL M   2      -3.118   0.678  16.509  1.00 23.75     0.012 C 
INPUT-LIGAND-PDBQT: ENDBRANCH  29  34
INPUT-LIGAND-PDBQT: ENDBRANCH  26  29
INPUT-LIGAND-PDBQT: ENDBRANCH  24  25
INPUT-LIGAND-PDBQT: BRANCH  24  37
INPUT-LIGAND-PDBQT: ATOM     37  CB  VAL M   3       2.005   3.815  16.491  1.00 27.90     0.009 C 
INPUT-LIGAND-PDBQT: ATOM     38  CG1 VAL M   3       3.407   3.635  17.134  1.00 29.90     0.012 C 
INPUT-LIGAND-PDBQT: ATOM     39  CG2 VAL M   3       2.088   3.861  14.957  1.00 27.82     0.012 C 
INPUT-LIGAND-PDBQT: ENDBRANCH  24  37
INPUT-LIGAND-PDBQT: ENDBRANCH   1  24
INPUT-LIGAND-PDBQT: TORSDOF 19
________________________________________________________________________________

Total charge on ligand                               =	+0.999 e
REMARK  19 active torsions:
REMARK  status: ('A' for Active; 'I' for Inactive)
REMARK    1  A    between atoms: N_1  and  CA_5 
REMARK    2  A    between atoms: CA_5  and  C_6 
REMARK    3  A    between atoms: CA_5  and  CB_8 
REMARK       I    between atoms: C_6  and  N_11 
REMARK    4  A    between atoms: N_11  and  CA_13 
REMARK    5  A    between atoms: CA_13  and  C_14 
REMARK    6  A    between atoms: CA_13  and  CB_16 
REMARK       I    between atoms: C_14  and  N_19 
REMARK    7  A    between atoms: N_19  and  CA_21 
REMARK    8  A    between atoms: CA_21  and  CB_28 
REMARK    9  A    between atoms: CA_21  and  CH@A_32 
REMARK   10  A    between atoms: CA_21  and  CH@B_33 
REMARK   11  A    between atoms: C@A_22  and  O@A_24 
REMARK   12  A    between atoms: C@A_22  and  CM@A_38 
REMARK   13  A    between atoms: C@B_23  and  O@B_26 
REMARK   14  A    between atoms: C@B_23  and  CM@B_39 
REMARK   15  A    between atoms: CB_28  and  CG_29 
REMARK   16  A    between atoms: CH@A_32  and  OH@A_34 
REMARK   17  A    between atoms: CH@A_32  and  CM@A_38 
REMARK   18  A    between atoms: CH@B_33  and  OH@B_36 
REMARK   19  A    between atoms: CH@B_33  and  CM@B_39 


Number of Rotatable Bonds in Small Molecule =	19 torsions
Number of atoms in ligand:  39

Number of non-hydrogen atoms in ligand:  30

Number of vibrational degrees of freedom of ligand:  111


Number of torsional degrees of freedom = 19
Estimated loss of torsional free energy upon binding = +5.6677 kcal/mol


DPF> about 0.843 2.729 18.432            # small molecule center

Small molecule center of rotation =	(+0.843, +2.729, +18.432)

DPF> tran0 random                         # initial coordinates/A or random

Initial translation =			(-3.348, 4.510, 22.043) Angstroms
DPF> quaternion0 random                   # initial orientation

Each run will begin with a new, random initial orientation.
Initial quaternion,  (x,y,z,w) =	( -0.173, 0.961, 0.175, 0.130 ),
DPF> dihe0 random                         # initial dihedrals (relative) or random

DPF> torsdof 19                            # torsional degrees of freedom

Number of torsional degrees of freedom = 19
Free energy coefficient for torsional degrees of freedom = 0.2983, the factory default value.

Estimated loss of torsional free energy upon binding = +5.6677 kcal/mol

DPF> rmstol 2.0                           # cluster_tolerance/A

Maximum RMS tolerance for conformational cluster analysis = 2.00 Angstroms
DPF> extnrg 1000.0                        # external grid energy

External grid energy (beyond grid map walls) = 1000.00

DPF> e0max 0.0 10000                      # max initial energy; max number of retries

Using user-specified maximum number of retries for simanneal initialization, 10000 retries.
If the simanneal initial energy is greater than e0max, 0.000,
then a new, random initial state will be created.

DPF> ga_pop_size 150                      # number of individuals in population

A population of 150 individuals will be used
DPF> ga_num_evals 2500000                 # maximum number of energy evaluations

There will be at most 2500000 function evaluations used.
DPF> ga_num_generations 27000             # maximum number of generations

The GA will run for at most 27000 generations.
DPF> ga_elitism 1                         # number of top individuals to survive to next generation

The 1 best will be preserved each GA generation.
DPF> ga_mutation_rate 0.02                # rate of gene mutation

The mutation rate is 0.020000.
DPF> ga_crossover_rate 0.8                # rate of crossover

The crossover rate is 0.800000.
DPF> ga_window_size 10                    # 

The GA's selection window is 10 generations.
DPF> ga_cauchy_alpha 0.0                  # Alpha parameter of Cauchy distribution

The alpha parameter (for the Cauchy distribution) is being set to 0.000000.
DPF> ga_cauchy_beta 1.0                   # Beta parameter Cauchy distribution

The beta parameter (for the Cauchy distribution) is being set to 1.000000.
DPF> set_ga                               # set the above parameters for GA or LGA

DPF> sw_max_its 300                       # iterations of Solis & Wets local search

Solis & Wets algorithms will perform at most 300 iterations.
DPF> sw_max_succ 4                        # consecutive successes before changing rho

Solis & Wets algorithms expand rho every 4 in a row successes.
DPF> sw_max_fail 4                        # consecutive failures before changing rho

Solis & Wets algorithms contract rho every 4 in a row failures.
DPF> sw_rho 1.0                           # size of local search space to sample

rho is set to 1.000000.
DPF> sw_lb_rho 0.01                       # lower bound on rho

rho will never get smaller than 0.010000.
DPF> ls_search_freq 0.06                  # probability of performing local search on individual

Local search will be performed with frequency 0.060000.
DPF> set_psw1                             # set the above pseudo-Solis & Wets parameters

Creating a new Local Search object using the pseudo-Solis-Wets algorithm (pSW1) with the current settings.

DPF> unbound_model bound                  # state of unbound ligand

DPF> ga_run 10                            # do this many hybrid GA-LS runs

centering ligand on specified point: 0.843 2.729 18.432
Furthest true ligand atom from "about" center is 6.900 Angstroms (maxrad).
Number of requested GA dockings = 10 runs
Unbound model to be used is 'same as bound' [AutoDock 4.2 default].

	BEGINNING GENETIC ALGORITHM DOCKING 1 of 10
Run: 1 Seed: 1693328917 421940212 [ Run 1 of 10 GA/GALS ]
Beginning LAMARCKIAN GENETIC ALGORITHM (LGA), with a maximum of 2500000 energy evaluations.

Final-Value: -16.154


	FINAL GENETIC ALGORITHM DOCKED STATE
	_______________________________________________


Detailed state:  trans 1.097 3.062 19.436 quatxyzw 0.484868 -0.202829 -0.130650 -0.840651 center 0.843 2.729 18.432 ntor 19 -145.8306 -180.0000 89.4911 -24.2383 -124.8207 -97.2219 43.3594 -179.0838 -26.5636 -30.8628 -152.4147 163.6950 -57.9974 42.2189 174.3917 131.2766 64.1401 -63.8006 165.9670
State:	  1.097   3.062  19.436   0.895 -0.375 -0.241 -65.582   -145.83 -180.00   89.49  -24.24 -124.82  -97.22   43.36 -179.08  -26.56  -30.86 -152.41  163.70  -58.00   42.22  174.39  131.28   64.14  -63.80  165.97

DOCKED: MODEL        1
DOCKED: USER    Run = 1
DOCKED: USER    DPF = dock.dpf
DOCKED: USER  
DOCKED: USER    Estimated Free Energy of Binding    =   -3.92 kcal/mol  [=(1)+(2)+(3)-(4)]
DOCKED: USER    Estimated Inhibition Constant, Ki   =    1.33 mM (millimolar)  [Temperature = 298.15 K]
DOCKED: USER    
DOCKED: USER    (1) Final Intermolecular Energy     =   -9.59 kcal/mol
DOCKED: USER        vdW + Hbond + desolv Energy     =   -9.60 kcal/mol
DOCKED: USER        Electrostatic Energy            =   +0.01 kcal/mol
DOCKED: USER    (2) Final Total Internal Energy     =   -6.56 kcal/mol
DOCKED: USER    (3) Torsional Free Energy           =   +5.67 kcal/mol
DOCKED: USER    (4) Unbound System's Energy  [=(2)] =   -6.56 kcal/mol
DOCKED: USER    
DOCKED: USER    
DOCKED: USER    NEWDPF move lig3sm1.pdbqt
DOCKED: USER    NEWDPF about 0.843000 2.729000 18.432000
DOCKED: USER    NEWDPF tran0 1.096958 3.061952 19.436161
DOCKED: USER    NEWDPF quaternion0 0.484868 -0.202829 -0.130650 -0.840651
DOCKED: USER    NEWDPF axisangle0 0.895289 -0.374515 -0.241241 -65.582169
DOCKED: USER    NEWDPF quat0 0.895289 -0.374515 -0.241241 -65.582169
DOCKED: USER    NEWDPF dihe0 -145.83 -180.00 89.49 -24.24 -124.82 -97.22 43.36 -179.08 -26.56 -30.86 -152.41 163.70 -58.00 42.22 174.39 131.28 64.14 -63.80 165.97 
DOCKED: USER  keepresnum = 1 
DOCKED: USER  
DOCKED: REMARK  19 active torsions:
DOCKED: REMARK  status: ('A' for Active; 'I' for Inactive)
DOCKED: REMARK    1  A    between atoms: N_1  and  CA_5 
DOCKED: REMARK    2  A    between atoms: CA_5  and  C_6 
DOCKED: REMARK    3  A    between atoms: CA_5  and  CB_8 
DOCKED: REMARK       I    between atoms: C_6  and  N_11 
DOCKED: REMARK    4  A    between atoms: N_11  and  CA_13 
DOCKED: REMARK    5  A    between atoms: CA_13  and  C_14 
DOCKED: REMARK    6  A    between atoms: CA_13  and  CB_16 
DOCKED: REMARK       I    between atoms: C_14  and  N_19 
DOCKED: REMARK    7  A    between atoms: N_19  and  CA_21 
DOCKED: REMARK    8  A    between atoms: CA_21  and  CB_28 
DOCKED: REMARK    9  A    between atoms: CA_21  and  CH@A_32 
DOCKED: REMARK   10  A    between atoms: CA_21  and  CH@B_33 
DOCKED: REMARK   11  A    between atoms: C@A_22  and  O@A_24 
DOCKED: REMARK   12  A    between atoms: C@A_22  and  CM@A_38 
DOCKED: REMARK   13  A    between atoms: C@B_23  and  O@B_26 
DOCKED: REMARK   14  A    between atoms: C@B_23  and  CM@B_39 
DOCKED: REMARK   15  A    between atoms: CB_28  and  CG_29 
DOCKED: REMARK   16  A    between atoms: CH@A_32  and  OH@A_34 
DOCKED: REMARK   17  A    between atoms: CH@A_32  and  CM@A_38 
DOCKED: REMARK   18  A    between atoms: CH@B_33  and  OH@B_36 
DOCKED: REMARK   19  A    between atoms: CH@B_33  and  CM@B_39 
DOCKED: USER                              x       y       z     vdW  Elec       q    Type
DOCKED: USER                           _______ _______ _______ _____ _____    ______ ____
DOCKED: ROOT
DOCKED: ATOM      1  C   VAL M   3       0.836   3.267  19.478 -0.22 +0.06    +0.241 C 
DOCKED: ATOM      2  O   VAL M   3      -0.017   3.833  20.176 -0.52 -0.06    -0.271 OA
DOCKED: ATOM      3  N   STA M   4       0.866   1.927  19.393 -0.10 -0.06    -0.345 N 
DOCKED: ATOM      4  HN  STA M   4       1.494   1.434  18.759 -0.28 -0.02    +0.163 HD
DOCKED: ENDROOT
DOCKED: BRANCH   3   5
DOCKED: ATOM      5  CA  STA M   4      -0.063   1.226  20.273 -0.35 +0.02    +0.085 C 
DOCKED: BRANCH   5   6
DOCKED: ATOM      6  CB  STA M   4       0.161   1.730  21.712 -0.31 +0.01    +0.040 C 
DOCKED: BRANCH   6   7
DOCKED: ATOM      7  CG  STA M   4       0.568   0.514  22.540 -0.30 -0.01    -0.020 C 
DOCKED: ATOM      8  CD1 STA M   4       1.777  -0.174  21.956 -0.25 +0.00    +0.009 C 
DOCKED: ATOM      9  CD2 STA M   4      -0.544  -0.513  22.789 -0.41 +0.00    +0.009 C 
DOCKED: ENDBRANCH   6   7
DOCKED: ENDBRANCH   5   6
DOCKED: BRANCH   5  10
DOCKED: ATOM     10  CH ASTA M   4      -1.554   1.267  19.886 -0.40 +0.04    +0.150 C 
DOCKED: BRANCH  10  11
DOCKED: ATOM     11  OH ASTA M   4      -2.196   2.385  20.479 -0.06 -0.10    -0.393 OA
DOCKED: ATOM     12  HH ASTA M   4      -1.601   3.124  20.533 -0.40 +0.03    +0.210 HD
DOCKED: ENDBRANCH  10  11
DOCKED: BRANCH  10  13
DOCKED: ATOM     13  CM ASTA M   4      -1.782   1.282  18.379 -0.44 +0.02    +0.060 C 
DOCKED: BRANCH  13  14
DOCKED: ATOM     14  C  ASTA M   4      -0.746   0.564  17.535 -0.35 +0.06    +0.166 C 
DOCKED: BRANCH  14  15
DOCKED: ATOM     15  O  ASTA M   4      -1.014   0.327  16.171 -0.58 -0.22    -0.401 OA
DOCKED: ATOM     16  H  ASTA M   4      -1.840   0.621  15.803 +0.13 +0.07    +0.209 HD
DOCKED: ENDBRANCH  14  15
DOCKED: ENDBRANCH  13  14
DOCKED: ENDBRANCH  10  13
DOCKED: ENDBRANCH   5  10
DOCKED: BRANCH   5  17
DOCKED: ATOM     17  CH BSTA M   4      -1.390   1.391  19.554 -0.39 +0.04    +0.150 C 
DOCKED: BRANCH  17  18
DOCKED: ATOM     18  OH BSTA M   4      -1.264   2.223  18.416 -0.22 -0.12    -0.393 OA
DOCKED: ATOM     19  HH BSTA M   4      -1.422   3.135  18.631 +0.10 +0.09    +0.210 HD
DOCKED: ENDBRANCH  17  18
DOCKED: BRANCH  17  20
DOCKED: ATOM     20  CM BSTA M   4      -1.871  -0.002  19.219 -0.42 +0.02    +0.060 C 
DOCKED: BRANCH  20  21
DOCKED: ATOM     21  C  BSTA M   4      -1.684  -0.604  17.836 -0.38 +0.07    +0.166 C 
DOCKED: BRANCH  21  22
DOCKED: ATOM     22  O  BSTA M   4      -2.868  -0.886  17.155 -0.61 -0.12    -0.401 OA
DOCKED: ATOM     23  H  BSTA M   4      -2.788  -0.911  16.209 +0.01 +0.06    +0.209 HD
DOCKED: ENDBRANCH  21  22
DOCKED: ENDBRANCH  20  21
DOCKED: ENDBRANCH  17  20
DOCKED: ENDBRANCH   5  17
DOCKED: ENDBRANCH   3   5
DOCKED: BRANCH   1  24
DOCKED: ATOM     24  CA  VAL M   3       1.897   4.111  18.774 -0.19 +0.05    +0.180 C 
DOCKED: BRANCH  24  25
DOCKED: ATOM     25  N   VAL M   3       1.474   4.134  17.405 -0.14 -0.11    -0.346 N 
DOCKED: ATOM     26  C   VAL M   2       1.307   3.047  16.668 -0.18 +0.06    +0.249 C 
DOCKED: ATOM     27  O   VAL M   2       1.625   1.927  17.071 -0.09 -0.04    -0.271 OA
DOCKED: ATOM     28  HN  VAL M   3       1.290   5.040  16.974 +0.03 +0.07    +0.163 HD
DOCKED: BRANCH  26  29
DOCKED: ATOM     29  CA  VAL M   2       0.799   3.267  15.223 -0.17 +0.05    +0.278 C 
DOCKED: BRANCH  29  30
DOCKED: ATOM     30  N   VAL M   2      -0.590   2.816  15.196 -0.24 -0.00    -0.066 N 
DOCKED: ATOM     31  HN3 VAL M   2      -0.733   1.983  14.625 +0.16 +0.04    +0.275 HD
DOCKED: ATOM     32  HN2 VAL M   2      -0.902   2.417  16.082 +0.13 +0.04    +0.275 HD
DOCKED: ATOM     33  HN1 VAL M   2      -1.150   3.612  14.894 -0.39 -0.07    +0.275 HD
DOCKED: ENDBRANCH  29  30
DOCKED: BRANCH  29  34
DOCKED: ATOM     34  CB  VAL M   2       1.155   4.589  14.487 -0.44 +0.00    +0.017 C 
DOCKED: ATOM     35  CG1 VAL M   2       2.643   5.017  14.506 -0.21 +0.00    +0.012 C 
DOCKED: ATOM     36  CG2 VAL M   2       0.493   4.710  13.082 -0.48 +0.00    +0.012 C 
DOCKED: ENDBRANCH  29  34
DOCKED: ENDBRANCH  26  29
DOCKED: ENDBRANCH  24  25
DOCKED: BRANCH  24  37
DOCKED: ATOM     37  CB  VAL M   3       1.960   5.610  19.323 -0.29 +0.00    +0.009 C 
DOCKED: ATOM     38  CG1 VAL M   3       1.916   5.674  20.874 -0.27 +0.00    +0.012 C 
DOCKED: ATOM     39  CG2 VAL M   3       3.192   6.337  18.761 -0.10 +0.00    +0.012 C 
DOCKED: ENDBRANCH  24  37
DOCKED: ENDBRANCH   1  24
DOCKED: TORSDOF 19
DOCKED: TER
DOCKED: ENDMDL
________________________________________________________________________________


	BEGINNING GENETIC ALGORITHM DOCKING 2 of 10
Run: 2 Seed: 301910977 1429400777 [ Run 2 of 10 GA/GALS ]
Beginning LAMARCKIAN GENETIC ALGORITHM (LGA), with a maximum of 2500000 energy evaluations.

Final-Value: -17.147


	FINAL GENETIC ALGORITHM DOCKED STATE
	_______________________________________________


Detailed state:  trans 1.288 3.585 17.627 quatxyzw 0.321176 -0.925775 0.165609 -0.111175 center 0.843 2.729 18.432 ntor 19 -169.9882 -165.7215 -170.0605 -143.5014 -91.5157 52.1073 169.1214 150.3490 -112.3335 5.7855 155.1432 141.6686 25.1258 161.7015 -129.6665 134.6317 59.9698 -170.2200 -28.5468
State:	  1.288   3.585  17.627   0.323 -0.932  0.167 -167.234   -169.99 -165.72 -170.06 -143.50  -91.52   52.11  169.12  150.35 -112.33    5.79  155.14  141.67   25.13  161.70 -129.67  134.63   59.97 -170.22  -28.55

DOCKED: MODEL        2
DOCKED: USER    Run = 2
DOCKED: USER    DPF = dock.dpf
DOCKED: USER  
DOCKED: USER    Estimated Free Energy of Binding    =   -3.08 kcal/mol  [=(1)+(2)+(3)-(4)]
DOCKED: USER    Estimated Inhibition Constant, Ki   =    5.57 mM (millimolar)  [Temperature = 298.15 K]
DOCKED: USER    
DOCKED: USER    (1) Final Intermolecular Energy     =   -8.74 kcal/mol
DOCKED: USER        vdW + Hbond + desolv Energy     =   -8.86 kcal/mol
DOCKED: USER        Electrostatic Energy            =   +0.12 kcal/mol
DOCKED: USER    (2) Final Total Internal Energy     =   -8.40 kcal/mol
DOCKED: USER    (3) Torsional Free Energy           =   +5.67 kcal/mol
DOCKED: USER    (4) Unbound System's Energy  [=(2)] =   -8.40 kcal/mol
DOCKED: USER    
DOCKED: USER    
DOCKED: USER    NEWDPF move lig3sm1.pdbqt
DOCKED: USER    NEWDPF about 0.843000 2.729000 18.432000
DOCKED: USER    NEWDPF tran0 1.287607 3.585462 17.626677
DOCKED: USER    NEWDPF quaternion0 0.321176 -0.925775 0.165609 -0.111175
DOCKED: USER    NEWDPF axisangle0 0.323179 -0.931550 0.166642 -167.233947
DOCKED: USER    NEWDPF quat0 0.323179 -0.931550 0.166642 -167.233947
DOCKED: USER    NEWDPF dihe0 -169.99 -165.72 -170.06 -143.50 -91.52 52.11 169.12 150.35 -112.33 5.79 155.14 141.67 25.13 161.70 -129.67 134.63 59.97 -170.22 -28.55 
DOCKED: USER  keepresnum = 1 
DOCKED: USER  
DOCKED: REMARK  19 active torsions:
DOCKED: REMARK  status: ('A' for Active; 'I' for Inactive)
DOCKED: REMARK    1  A    between atoms: N_1  and  CA_5 
DOCKED: REMARK    2  A    between atoms: CA_5  and  C_6 
DOCKED: REMARK    3  A    between atoms: CA_5  and  CB_8 
DOCKED: REMARK       I    between atoms: C_6  and  N_11 
DOCKED: REMARK    4  A    between atoms: N_11  and  CA_13 
DOCKED: REMARK    5  A    between atoms: CA_13  and  C_14 
DOCKED: REMARK    6  A    between atoms: CA_13  and  CB_16 
DOCKED: REMARK       I    between atoms: C_14  and  N_19 
DOCKED: REMARK    7  A    between atoms: N_19  and  CA_21 
DOCKED: REMARK    8  A    between atoms: CA_21  and  CB_28 
DOCKED: REMARK    9  A    between atoms: CA_21  and  CH@A_32 
DOCKED: REMARK   10  A    between atoms: CA_21  and  CH@B_33 
DOCKED: REMARK   11  A    between atoms: C@A_22  and  O@A_24 
DOCKED: REMARK   12  A    between atoms: C@A_22  and  CM@A_38 
DOCKED: REMARK   13  A    between atoms: C@B_23  and  O@B_26 
DOCKED: REMARK   14  A    between atoms: C@B_23  and  CM@B_39 
DOCKED: REMARK   15  A    between atoms: CB_28  and  CG_29 
DOCKED: REMARK   16  A    between atoms: CH@A_32  and  OH@A_34 
DOCKED: REMARK   17  A    between atoms: CH@A_32  and  CM@A_38 
DOCKED: REMARK   18  A    between atoms: CH@B_33  and  OH@B_36 
DOCKED: REMARK   19  A    between atoms: CH@B_33  and  CM@B_39 
DOCKED: USER                              x       y       z     vdW  Elec       q    Type
DOCKED: USER                           _______ _______ _______ _____ _____    ______ ____
DOCKED: ROOT
DOCKED: ATOM      1  C   VAL M   3       1.442   3.860  17.515 -0.22 +0.07    +0.241 C 
DOCKED: ATOM      2  O   VAL M   3       1.512   4.864  16.791 -0.62 -0.11    -0.271 OA
DOCKED: ATOM      3  N   STA M   4       1.376   2.633  16.972 -0.09 -0.07    -0.345 N 
DOCKED: ATOM      4  HN  STA M   4       1.409   1.785  17.536 -0.26 +0.01    +0.163 HD
DOCKED: ENDROOT
DOCKED: BRANCH   3   5
DOCKED: ATOM      5  CA  STA M   4       1.252   2.600  15.519 -0.27 +0.02    +0.085 C 
DOCKED: BRANCH   5   6
DOCKED: ATOM      6  CB  STA M   4       2.550   2.009  14.937 -0.36 +0.02    +0.040 C 
DOCKED: BRANCH   6   7
DOCKED: ATOM      7  CG  STA M   4       3.553   3.157  14.857 -0.29 -0.01    -0.020 C 
DOCKED: ATOM      8  CD1 STA M   4       4.351   3.285  16.131 -0.27 +0.00    +0.009 C 
DOCKED: ATOM      9  CD2 STA M   4       2.963   4.520  14.475 -0.35 +0.00    +0.009 C 
DOCKED: ENDBRANCH   6   7
DOCKED: ENDBRANCH   5   6
DOCKED: BRANCH   5  10
DOCKED: ATOM     10  CH ASTA M   4       0.006   1.901  14.942 -0.29 +0.04    +0.150 C 
DOCKED: BRANCH  10  11
DOCKED: ATOM     11  OH ASTA M   4      -1.087   2.002  15.841 -0.15 -0.08    -0.393 OA
DOCKED: ATOM     12  HH ASTA M   4      -0.887   2.606  16.546 +0.07 +0.04    +0.210 HD
DOCKED: ENDBRANCH  10  11
DOCKED: BRANCH  10  13
DOCKED: ATOM     13  CM ASTA M   4      -0.401   2.435  13.574 -0.28 -0.00    +0.060 C 
DOCKED: BRANCH  13  14
DOCKED: ATOM     14  C  ASTA M   4       0.093   3.826  13.220 -0.28 +0.00    +0.166 C 
DOCKED: BRANCH  14  15
DOCKED: ATOM     15  O  ASTA M   4       0.054   4.839  14.200 -0.06 +0.02    -0.401 OA
DOCKED: ATOM     16  H  ASTA M   4      -0.084   4.600  15.109 -0.37 -0.05    +0.209 HD
DOCKED: ENDBRANCH  14  15
DOCKED: ENDBRANCH  13  14
DOCKED: ENDBRANCH  10  13
DOCKED: ENDBRANCH   5  10
DOCKED: BRANCH   5  17
DOCKED: ATOM     17  CH BSTA M   4      -0.100   1.941  15.316 -0.29 +0.04    +0.150 C 
DOCKED: BRANCH  17  18
DOCKED: ATOM     18  OH BSTA M   4      -1.106   2.572  16.085 -0.13 -0.05    -0.393 OA
DOCKED: ATOM     19  HH BSTA M   4      -0.794   3.381  16.472 -0.30 +0.00    +0.210 HD
DOCKED: ENDBRANCH  17  18
DOCKED: BRANCH  17  20
DOCKED: ATOM     20  CM BSTA M   4      -0.378   1.983  13.830 -0.28 +0.00    +0.060 C 
DOCKED: BRANCH  20  21
DOCKED: ATOM     21  C  BSTA M   4      -1.605   2.676  13.263 -0.25 -0.01    +0.166 C 
DOCKED: BRANCH  21  22
DOCKED: ATOM     22  O  BSTA M   4      -2.331   3.431  14.186 -0.08 +0.02    -0.401 OA
DOCKED: ATOM     23  H  BSTA M   4      -1.803   3.883  14.834 -0.45 -0.09    +0.209 HD
DOCKED: ENDBRANCH  21  22
DOCKED: ENDBRANCH  20  21
DOCKED: ENDBRANCH  17  20
DOCKED: ENDBRANCH   5  17
DOCKED: ENDBRANCH   3   5
DOCKED: BRANCH   1  24
DOCKED: ATOM     24  CA  VAL M   3       1.358   4.043  19.028 -0.23 +0.06    +0.180 C 
DOCKED: BRANCH  24  25
DOCKED: ATOM     25  N   VAL M   3       0.589   2.919  19.474 -0.13 -0.08    -0.346 N 
DOCKED: ATOM     26  C   VAL M   2      -0.667   2.699  19.119 -0.31 +0.08    +0.249 C 
DOCKED: ATOM     27  O   VAL M   2      -1.318   3.519  18.469 -0.53 -0.13    -0.271 OA
DOCKED: ATOM     28  HN  VAL M   3       1.036   2.249  20.101 +0.07 +0.03    +0.163 HD
DOCKED: BRANCH  26  29
DOCKED: ATOM     29  CA  VAL M   2      -1.319   1.406  19.663 -0.30 +0.08    +0.278 C 
DOCKED: BRANCH  29  30
DOCKED: ATOM     30  N   VAL M   2      -1.356   0.458  18.552 -0.42 -0.02    -0.066 N 
DOCKED: ATOM     31  HN3 VAL M   2      -1.431   0.908  17.640 +0.18 +0.09    +0.275 HD
DOCKED: ATOM     32  HN2 VAL M   2      -0.463  -0.009  18.391 +0.15 +0.10    +0.275 HD
DOCKED: ATOM     33  HN1 VAL M   2      -2.120  -0.190  18.746 +0.19 +0.09    +0.275 HD
DOCKED: ENDBRANCH  29  30
DOCKED: BRANCH  29  34
DOCKED: ATOM     34  CB  VAL M   2      -0.903   0.877  21.065 -0.46 +0.00    +0.017 C 
DOCKED: ATOM     35  CG1 VAL M   2      -0.213   1.890  22.013 -0.30 +0.00    +0.012 C 
DOCKED: ATOM     36  CG2 VAL M   2      -2.011   0.033  21.761 -0.55 +0.00    +0.012 C 
DOCKED: ENDBRANCH  29  34
DOCKED: ENDBRANCH  26  29
DOCKED: ENDBRANCH  24  25
DOCKED: BRANCH  24  37
DOCKED: ATOM     37  CB  VAL M   3       2.789   4.007  19.737 -0.15 +0.00    +0.009 C 
DOCKED: ATOM     38  CG1 VAL M   3       3.715   2.911  19.144 -0.10 +0.00    +0.012 C 
DOCKED: ATOM     39  CG2 VAL M   3       3.449   5.394  19.687 -0.13 +0.00    +0.012 C 
DOCKED: ENDBRANCH  24  37
DOCKED: ENDBRANCH   1  24
DOCKED: TORSDOF 19
DOCKED: TER
DOCKED: ENDMDL
________________________________________________________________________________


	BEGINNING GENETIC ALGORITHM DOCKING 3 of 10
Run: 3 Seed: 1833521924 2086737688 [ Run 3 of 10 GA/GALS ]
Beginning LAMARCKIAN GENETIC ALGORITHM (LGA), with a maximum of 2500000 energy evaluations.

Final-Value: -14.689


	FINAL GENETIC ALGORITHM DOCKED STATE
	_______________________________________________


Detailed state:  trans 2.069 3.675 19.293 quatxyzw -0.543867 0.303201 0.238359 0.745293 center 0.843 2.729 18.432 ntor 19 -117.7922 179.8277 -173.3563 156.6604 156.4673 -96.0485 166.9557 179.9450 -16.4127 11.9003 -112.5990 153.6869 -116.7078 180.0000 -82.2326 -163.1119 -162.1620 -114.1077 16.4396
State:	  2.069   3.675  19.293  -0.816  0.455  0.358 83.631   -117.79  179.83 -173.36  156.66  156.47  -96.05  166.96  179.94  -16.41   11.90 -112.60  153.69 -116.71  180.00  -82.23 -163.11 -162.16 -114.11   16.44

DOCKED: MODEL        3
DOCKED: USER    Run = 3
DOCKED: USER    DPF = dock.dpf
DOCKED: USER  
DOCKED: USER    Estimated Free Energy of Binding    =   -3.98 kcal/mol  [=(1)+(2)+(3)-(4)]
DOCKED: USER    Estimated Inhibition Constant, Ki   =    1.21 mM (millimolar)  [Temperature = 298.15 K]
DOCKED: USER    
DOCKED: USER    (1) Final Intermolecular Energy     =   -9.65 kcal/mol
DOCKED: USER        vdW + Hbond + desolv Energy     =   -9.60 kcal/mol
DOCKED: USER        Electrostatic Energy            =   -0.05 kcal/mol
DOCKED: USER    (2) Final Total Internal Energy     =   -5.04 kcal/mol
DOCKED: USER    (3) Torsional Free Energy           =   +5.67 kcal/mol
DOCKED: USER    (4) Unbound System's Energy  [=(2)] =   -5.04 kcal/mol
DOCKED: USER    
DOCKED: USER    
DOCKED: USER    NEWDPF move lig3sm1.pdbqt
DOCKED: USER    NEWDPF about 0.843000 2.729000 18.432000
DOCKED: USER    NEWDPF tran0 2.069013 3.674773 19.293401
DOCKED: USER    NEWDPF quaternion0 -0.543867 0.303201 0.238359 0.745293
DOCKED: USER    NEWDPF axisangle0 -0.815715 0.454754 0.357501 83.631387
DOCKED: USER    NEWDPF quat0 -0.815715 0.454754 0.357501 83.631387
DOCKED: USER    NEWDPF dihe0 -117.79 179.83 -173.36 156.66 156.47 -96.05 166.96 179.94 -16.41 11.90 -112.60 153.69 -116.71 180.00 -82.23 -163.11 -162.16 -114.11 16.44 
DOCKED: USER  keepresnum = 1 
DOCKED: USER  
DOCKED: REMARK  19 active torsions:
DOCKED: REMARK  status: ('A' for Active; 'I' for Inactive)
DOCKED: REMARK    1  A    between atoms: N_1  and  CA_5 
DOCKED: REMARK    2  A    between atoms: CA_5  and  C_6 
DOCKED: REMARK    3  A    between atoms: CA_5  and  CB_8 
DOCKED: REMARK       I    between atoms: C_6  and  N_11 
DOCKED: REMARK    4  A    between atoms: N_11  and  CA_13 
DOCKED: REMARK    5  A    between atoms: CA_13  and  C_14 
DOCKED: REMARK    6  A    between atoms: CA_13  and  CB_16 
DOCKED: REMARK       I    between atoms: C_14  and  N_19 
DOCKED: REMARK    7  A    between atoms: N_19  and  CA_21 
DOCKED: REMARK    8  A    between atoms: CA_21  and  CB_28 
DOCKED: REMARK    9  A    between atoms: CA_21  and  CH@A_32 
DOCKED: REMARK   10  A    between atoms: CA_21  and  CH@B_33 
DOCKED: REMARK   11  A    between atoms: C@A_22  and  O@A_24 
DOCKED: REMARK   12  A    between atoms: C@A_22  and  CM@A_38 
DOCKED: REMARK   13  A    between atoms: C@B_23  and  O@B_26 
DOCKED: REMARK   14  A    between atoms: C@B_23  and  CM@B_39 
DOCKED: REMARK   15  A    between atoms: CB_28  and  CG_29 
DOCKED: REMARK   16  A    between atoms: CH@A_32  and  OH@A_34 
DOCKED: REMARK   17  A    between atoms: CH@A_32  and  CM@A_38 
DOCKED: REMARK   18  A    between atoms: CH@B_33  and  OH@B_36 
DOCKED: REMARK   19  A    between atoms: CH@B_33  and  CM@B_39 
DOCKED: USER                              x       y       z     vdW  Elec       q    Type
DOCKED: USER                           _______ _______ _______ _____ _____    ______ ____
DOCKED: ROOT
DOCKED: ATOM      1  C   VAL M   3       1.868   3.935  19.357 -0.15 +0.07    +0.241 C 
DOCKED: ATOM      2  O   VAL M   3       1.101   4.579  20.086 -0.28 -0.08    -0.271 OA
DOCKED: ATOM      3  N   STA M   4       1.557   2.683  18.980 -0.07 -0.06    -0.345 N 
DOCKED: ATOM      4  HN  STA M   4       2.119   2.160  18.308 -0.36 -0.01    +0.163 HD
DOCKED: ENDROOT
DOCKED: BRANCH   3   5
DOCKED: ATOM      5  CA  STA M   4       0.360   2.126  19.597 -0.31 +0.02    +0.085 C 
DOCKED: BRANCH   5   6
DOCKED: ATOM      6  CB  STA M   4      -0.170   0.998  18.692 -0.39 +0.01    +0.040 C 
DOCKED: BRANCH   6   7
DOCKED: ATOM      7  CG  STA M   4      -0.875   1.676  17.519 -0.41 -0.01    -0.020 C 
DOCKED: ATOM      8  CD1 STA M   4      -1.308   3.078  17.871 -0.38 +0.00    +0.009 C 
DOCKED: ATOM      9  CD2 STA M   4      -2.058   0.901  16.925 -0.48 +0.00    +0.009 C 
DOCKED: ENDBRANCH   6   7
DOCKED: ENDBRANCH   5   6
DOCKED: BRANCH   5  10
DOCKED: ATOM     10  CH ASTA M   4       0.483   1.662  21.062 -0.25 +0.03    +0.150 C 
DOCKED: BRANCH  10  11
DOCKED: ATOM     11  OH ASTA M   4       1.122   2.654  21.850 -0.07 -0.07    -0.393 OA
DOCKED: ATOM     12  HH ASTA M   4       0.610   3.454  21.863 -0.24 +0.01    +0.210 HD
DOCKED: ENDBRANCH  10  11
DOCKED: BRANCH  10  13
DOCKED: ATOM     13  CM ASTA M   4      -0.856   1.291  21.688 -0.41 +0.01    +0.060 C 
DOCKED: BRANCH  13  14
DOCKED: ATOM     14  C  ASTA M   4      -1.506   0.017  21.181 -0.36 +0.05    +0.166 C 
DOCKED: BRANCH  14  15
DOCKED: ATOM     15  O  ASTA M   4      -2.626  -0.502  21.862 -0.21 -0.13    -0.401 OA
DOCKED: ATOM     16  H  ASTA M   4      -2.954  -0.046  22.628 +0.15 +0.07    +0.209 HD
DOCKED: ENDBRANCH  14  15
DOCKED: ENDBRANCH  13  14
DOCKED: ENDBRANCH  10  13
DOCKED: ENDBRANCH   5  10
DOCKED: BRANCH   5  17
DOCKED: ATOM     17  CH BSTA M   4       0.809   1.874  21.025 -0.23 +0.03    +0.150 C 
DOCKED: BRANCH  17  18
DOCKED: ATOM     18  OH BSTA M   4       0.402   2.918  21.890 -0.02 -0.02    -0.393 OA
DOCKED: ATOM     19  HH BSTA M   4      -0.164   3.538  21.445 -0.46 -0.05    +0.210 HD
DOCKED: ENDBRANCH  17  18
DOCKED: BRANCH  17  20
DOCKED: ATOM     20  CM BSTA M   4       0.247   0.527  21.420 -0.34 +0.02    +0.060 C 
DOCKED: BRANCH  20  21
DOCKED: ATOM     21  C  BSTA M   4      -0.883   0.393  22.426 -0.34 +0.05    +0.166 C 
DOCKED: BRANCH  21  22
DOCKED: ATOM     22  O  BSTA M   4      -1.455   1.600  22.829 -0.05 -0.10    -0.401 OA
DOCKED: ATOM     23  H  BSTA M   4      -0.895   2.360  22.728 -0.24 +0.01    +0.209 HD
DOCKED: ENDBRANCH  21  22
DOCKED: ENDBRANCH  20  21
DOCKED: ENDBRANCH  17  20
DOCKED: ENDBRANCH   5  17
DOCKED: ENDBRANCH   3   5
DOCKED: BRANCH   1  24
DOCKED: ATOM     24  CA  VAL M   3       3.204   4.556  18.954 -0.11 +0.05    +0.180 C 
DOCKED: BRANCH  24  25
DOCKED: ATOM     25  N   VAL M   3       3.532   3.907  17.718 -0.05 -0.09    -0.346 N 
DOCKED: ATOM     26  C   VAL M   2       2.947   4.183  16.563 -0.18 +0.08    +0.249 C 
DOCKED: ATOM     27  O   VAL M   2       1.978   4.940  16.484 -0.60 -0.11    -0.271 OA
DOCKED: ATOM     28  HN  VAL M   3       4.259   3.191  17.730 +0.04 +0.03    +0.163 HD
DOCKED: BRANCH  26  29
DOCKED: ATOM     29  CA  VAL M   2       3.468   3.413  15.327 -0.18 +0.08    +0.278 C 
DOCKED: BRANCH  29  30
DOCKED: ATOM     30  N   VAL M   2       4.923   3.378  15.440 -0.09 -0.01    -0.066 N 
DOCKED: ATOM     31  HN3 VAL M   2       5.384   3.014  14.606 -0.35 -0.00    +0.275 HD
DOCKED: ATOM     32  HN2 VAL M   2       5.351   4.304  15.427 -0.46 -0.02    +0.275 HD
DOCKED: ATOM     33  HN1 VAL M   2       5.138   2.847  16.283 +0.06 +0.06    +0.275 HD
DOCKED: ENDBRANCH  29  30
DOCKED: BRANCH  29  34
DOCKED: ATOM     34  CB  VAL M   2       2.736   2.117  14.876 -0.38 +0.01    +0.017 C 
DOCKED: ATOM     35  CG1 VAL M   2       1.194   2.196  14.754 -0.35 +0.00    +0.012 C 
DOCKED: ATOM     36  CG2 VAL M   2       3.417   1.414  13.665 -0.51 +0.01    +0.012 C 
DOCKED: ENDBRANCH  29  34
DOCKED: ENDBRANCH  26  29
DOCKED: ENDBRANCH  24  25
DOCKED: BRANCH  24  37
DOCKED: ATOM     37  CB  VAL M   3       3.104   6.130  18.703 -0.14 +0.00    +0.009 C 
DOCKED: ATOM     38  CG1 VAL M   3       2.514   6.887  19.923 -0.24 +0.00    +0.012 C 
DOCKED: ATOM     39  CG2 VAL M   3       4.473   6.697  18.293 -0.13 +0.00    +0.012 C 
DOCKED: ENDBRANCH  24  37
DOCKED: ENDBRANCH   1  24
DOCKED: TORSDOF 19
DOCKED: TER
DOCKED: ENDMDL
________________________________________________________________________________


	BEGINNING GENETIC ALGORITHM DOCKING 4 of 10
Run: 4 Seed: 101856444 317811983 [ Run 4 of 10 GA/GALS ]
Beginning LAMARCKIAN GENETIC ALGORITHM (LGA), with a maximum of 2500000 energy evaluations.

Final-Value: -16.560


	FINAL GENETIC ALGORITHM DOCKED STATE
	_______________________________________________


Detailed state:  trans -0.979 1.222 18.318 quatxyzw -0.883092 0.435149 0.174873 0.014566 center 0.843 2.729 18.432 ntor 19 179.7668 89.3985 -119.4130 161.8250 38.3995 180.0000 -179.9291 76.4041 6.5418 119.6910 153.4805 -179.8802 -179.9476 179.3401 -150.4545 18.2532 -179.7600 -98.7391 1.3653
State:	 -0.979   1.222  18.318  -0.883  0.435  0.175 178.331    179.77   89.40 -119.41  161.83   38.40  180.00 -179.93   76.40    6.54  119.69  153.48 -179.88 -179.95  179.34 -150.45   18.25 -179.76  -98.74    1.37

DOCKED: MODEL        4
DOCKED: USER    Run = 4
DOCKED: USER    DPF = dock.dpf
DOCKED: USER  
DOCKED: USER    Estimated Free Energy of Binding    =   -3.96 kcal/mol  [=(1)+(2)+(3)-(4)]
DOCKED: USER    Estimated Inhibition Constant, Ki   =    1.25 mM (millimolar)  [Temperature = 298.15 K]
DOCKED: USER    
DOCKED: USER    (1) Final Intermolecular Energy     =   -9.63 kcal/mol
DOCKED: USER        vdW + Hbond + desolv Energy     =   -9.80 kcal/mol
DOCKED: USER        Electrostatic Energy            =   +0.17 kcal/mol
DOCKED: USER    (2) Final Total Internal Energy     =   -6.93 kcal/mol
DOCKED: USER    (3) Torsional Free Energy           =   +5.67 kcal/mol
DOCKED: USER    (4) Unbound System's Energy  [=(2)] =   -6.93 kcal/mol
DOCKED: USER    
DOCKED: USER    
DOCKED: USER    NEWDPF move lig3sm1.pdbqt
DOCKED: USER    NEWDPF about 0.843000 2.729000 18.432000
DOCKED: USER    NEWDPF tran0 -0.979234 1.221991 18.318283
DOCKED: USER    NEWDPF quaternion0 -0.883092 0.435149 0.174873 0.014566
DOCKED: USER    NEWDPF axisangle0 -0.883186 0.435196 0.174892 178.330807
DOCKED: USER    NEWDPF quat0 -0.883186 0.435196 0.174892 178.330807
DOCKED: USER    NEWDPF dihe0 179.77 89.40 -119.41 161.83 38.40 180.00 -179.93 76.40 6.54 119.69 153.48 -179.88 -179.95 179.34 -150.45 18.25 -179.76 -98.74 1.37 
DOCKED: USER  keepresnum = 1 
DOCKED: USER  
DOCKED: REMARK  19 active torsions:
DOCKED: REMARK  status: ('A' for Active; 'I' for Inactive)
DOCKED: REMARK    1  A    between atoms: N_1  and  CA_5 
DOCKED: REMARK    2  A    between atoms: CA_5  and  C_6 
DOCKED: REMARK    3  A    between atoms: CA_5  and  CB_8 
DOCKED: REMARK       I    between atoms: C_6  and  N_11 
DOCKED: REMARK    4  A    between atoms: N_11  and  CA_13 
DOCKED: REMARK    5  A    between atoms: CA_13  and  C_14 
DOCKED: REMARK    6  A    between atoms: CA_13  and  CB_16 
DOCKED: REMARK       I    between atoms: C_14  and  N_19 
DOCKED: REMARK    7  A    between atoms: N_19  and  CA_21 
DOCKED: REMARK    8  A    between atoms: CA_21  and  CB_28 
DOCKED: REMARK    9  A    between atoms: CA_21  and  CH@A_32 
DOCKED: REMARK   10  A    between atoms: CA_21  and  CH@B_33 
DOCKED: REMARK   11  A    between atoms: C@A_22  and  O@A_24 
DOCKED: REMARK   12  A    between atoms: C@A_22  and  CM@A_38 
DOCKED: REMARK   13  A    between atoms: C@B_23  and  O@B_26 
DOCKED: REMARK   14  A    between atoms: C@B_23  and  CM@B_39 
DOCKED: REMARK   15  A    between atoms: CB_28  and  CG_29 
DOCKED: REMARK   16  A    between atoms: CH@A_32  and  OH@A_34 
DOCKED: REMARK   17  A    between atoms: CH@A_32  and  CM@A_38 
DOCKED: REMARK   18  A    between atoms: CH@B_33  and  OH@B_36 
DOCKED: REMARK   19  A    between atoms: CH@B_33  and  CM@B_39 
DOCKED: USER                              x       y       z     vdW  Elec       q    Type
DOCKED: USER                           _______ _______ _______ _____ _____    ______ ____
DOCKED: ROOT
DOCKED: ATOM      1  C   VAL M   3      -1.247   1.376  18.448 -0.31 +0.07    +0.241 C 
DOCKED: ATOM      2  O   VAL M   3      -2.469   1.523  18.588 -0.27 -0.09    -0.271 OA
DOCKED: ATOM      3  N   STA M   4      -0.679   1.518  17.239 -0.15 -0.10    -0.345 N 
DOCKED: ATOM      4  HN  STA M   4       0.332   1.494  17.104 +0.06 +0.05    +0.163 HD
DOCKED: ENDROOT
DOCKED: BRANCH   3   5
DOCKED: ATOM      5  CA  STA M   4      -1.609   1.708  16.132 -0.35 +0.02    +0.085 C 
DOCKED: BRANCH   5   6
DOCKED: ATOM      6  CB  STA M   4      -0.990   2.720  15.149 -0.25 +0.00    +0.040 C 
DOCKED: BRANCH   6   7
DOCKED: ATOM      7  CG  STA M   4       0.524   2.543  15.239 -0.33 -0.00    -0.020 C 
DOCKED: ATOM      8  CD1 STA M   4       1.241   3.869  15.176 -0.36 +0.00    +0.009 C 
DOCKED: ATOM      9  CD2 STA M   4       1.135   1.574  14.220 -0.41 +0.00    +0.009 C 
DOCKED: ENDBRANCH   6   7
DOCKED: ENDBRANCH   5   6
DOCKED: BRANCH   5  10
DOCKED: ATOM     10  CH ASTA M   4      -2.094   0.439  15.404 -0.34 +0.05    +0.150 C 
DOCKED: BRANCH  10  11
DOCKED: ATOM     11  OH ASTA M   4      -2.496  -0.552  16.336 -0.82 -0.14    -0.393 OA
DOCKED: ATOM     12  HH ASTA M   4      -2.384  -0.240  17.227 +0.14 +0.07    +0.210 HD
DOCKED: ENDBRANCH  10  11
DOCKED: BRANCH  10  13
DOCKED: ATOM     13  CM ASTA M   4      -3.225   0.708  14.418 -0.38 +0.00    +0.060 C 
DOCKED: BRANCH  13  14
DOCKED: ATOM     14  C  ASTA M   4      -4.054   1.954  14.670 -0.30 +0.02    +0.166 C 
DOCKED: BRANCH  14  15
DOCKED: ATOM     15  O  ASTA M   4      -3.611   3.190  14.156 -0.16 -0.04    -0.401 OA
DOCKED: ATOM     16  H  ASTA M   4      -3.049   3.740  14.689 -0.20 -0.00    +0.209 HD
DOCKED: ENDBRANCH  14  15
DOCKED: ENDBRANCH  13  14
DOCKED: ENDBRANCH  10  13
DOCKED: ENDBRANCH   5  10
DOCKED: BRANCH   5  17
DOCKED: ATOM     17  CH BSTA M   4      -1.938   0.282  15.726 -0.34 +0.06    +0.150 C 
DOCKED: BRANCH  17  18
DOCKED: ATOM     18  OH BSTA M   4      -1.868  -0.601  16.829 -0.76 -0.20    -0.393 OA
DOCKED: ATOM     19  HH BSTA M   4      -2.485  -0.359  17.510 +0.14 +0.07    +0.210 HD
DOCKED: ENDBRANCH  17  18
DOCKED: BRANCH  17  20
DOCKED: ATOM     20  CM BSTA M   4      -3.308   0.325  15.087 -0.45 +0.01    +0.060 C 
DOCKED: BRANCH  20  21
DOCKED: ATOM     21  C  BSTA M   4      -4.580   0.306  15.916 -0.39 +0.02    +0.166 C 
DOCKED: BRANCH  21  22
DOCKED: ATOM     22  O  BSTA M   4      -4.417   0.689  17.248 -0.18 -0.09    -0.401 OA
DOCKED: ATOM     23  H  BSTA M   4      -3.522   0.657  17.566 +0.15 +0.06    +0.209 HD
DOCKED: ENDBRANCH  21  22
DOCKED: ENDBRANCH  20  21
DOCKED: ENDBRANCH  17  20
DOCKED: ENDBRANCH   5  17
DOCKED: ENDBRANCH   3   5
DOCKED: BRANCH   1  24
DOCKED: ATOM     24  CA  VAL M   3      -0.407   0.959  19.653 -0.33 +0.05    +0.180 C 
DOCKED: BRANCH  24  25
DOCKED: ATOM     25  N   VAL M   3       0.781   1.754  19.543 -0.11 -0.06    -0.346 N 
DOCKED: ATOM     26  C   VAL M   2       0.780   3.077  19.502 -0.21 +0.06    +0.249 C 
DOCKED: ATOM     27  O   VAL M   2      -0.262   3.730  19.430 -0.86 -0.11    -0.271 OA
DOCKED: ATOM     28  HN  VAL M   3       1.678   1.272  19.494 -0.27 -0.01    +0.163 HD
DOCKED: BRANCH  26  29
DOCKED: ATOM     29  CA  VAL M   2       2.165   3.763  19.430 -0.11 +0.07    +0.278 C 
DOCKED: BRANCH  29  30
DOCKED: ATOM     30  N   VAL M   2       2.032   4.875  18.491 -0.24 -0.03    -0.066 N 
DOCKED: ATOM     31  HN3 VAL M   2       2.316   5.771  18.885 +0.09 +0.12    +0.275 HD
DOCKED: ATOM     32  HN2 VAL M   2       2.714   4.846  17.733 +0.10 +0.11    +0.275 HD
DOCKED: ATOM     33  HN1 VAL M   2       1.066   4.867  18.165 +0.11 +0.12    +0.275 HD
DOCKED: ENDBRANCH  29  30
DOCKED: BRANCH  29  34
DOCKED: ATOM     34  CB  VAL M   2       2.961   4.004  20.743 -0.10 +0.00    +0.017 C 
DOCKED: ATOM     35  CG1 VAL M   2       2.235   4.791  21.862 -0.17 +0.00    +0.012 C 
DOCKED: ATOM     36  CG2 VAL M   2       3.699   2.733  21.259 -0.09 +0.00    +0.012 C 
DOCKED: ENDBRANCH  29  34
DOCKED: ENDBRANCH  26  29
DOCKED: ENDBRANCH  24  25
DOCKED: BRANCH  24  37
DOCKED: ATOM     37  CB  VAL M   3      -1.120   1.282  21.046 -0.48 +0.00    +0.009 C 
DOCKED: ATOM     38  CG1 VAL M   3      -2.225   0.249  21.398 -0.51 +0.00    +0.012 C 
DOCKED: ATOM     39  CG2 VAL M   3      -0.078   1.401  22.169 -0.35 +0.00    +0.012 C 
DOCKED: ENDBRANCH  24  37
DOCKED: ENDBRANCH   1  24
DOCKED: TORSDOF 19
DOCKED: TER
DOCKED: ENDMDL
________________________________________________________________________________


	BEGINNING GENETIC ALGORITHM DOCKING 5 of 10
Run: 5 Seed: 756482120 246200678 [ Run 5 of 10 GA/GALS ]
Beginning LAMARCKIAN GENETIC ALGORITHM (LGA), with a maximum of 2500000 energy evaluations.

Final-Value: -16.930


	FINAL GENETIC ALGORITHM DOCKED STATE
	_______________________________________________


Detailed state:  trans -0.106 1.128 18.795 quatxyzw 0.994371 0.086549 -0.011341 0.060065 center 0.843 2.729 18.432 ntor 19 -76.3537 170.3765 -24.4328 -168.0548 19.8451 138.1850 135.6999 -173.1645 -3.3062 -52.7059 60.5345 106.2154 -180.0000 149.0042 -142.6189 164.2520 180.0000 -132.2094 -61.4640
State:	 -0.106   1.128  18.795   0.996  0.087 -0.011 173.113    -76.35  170.38  -24.43 -168.05   19.85  138.19  135.70 -173.16   -3.31  -52.71   60.53  106.22 -180.00  149.00 -142.62  164.25  180.00 -132.21  -61.46

DOCKED: MODEL        5
DOCKED: USER    Run = 5
DOCKED: USER    DPF = dock.dpf
DOCKED: USER  
DOCKED: USER    Estimated Free Energy of Binding    =   -3.97 kcal/mol  [=(1)+(2)+(3)-(4)]
DOCKED: USER    Estimated Inhibition Constant, Ki   =    1.24 mM (millimolar)  [Temperature = 298.15 K]
DOCKED: USER    
DOCKED: USER    (1) Final Intermolecular Energy     =   -9.63 kcal/mol
DOCKED: USER        vdW + Hbond + desolv Energy     =   -9.59 kcal/mol
DOCKED: USER        Electrostatic Energy            =   -0.05 kcal/mol
DOCKED: USER    (2) Final Total Internal Energy     =   -7.30 kcal/mol
DOCKED: USER    (3) Torsional Free Energy           =   +5.67 kcal/mol
DOCKED: USER    (4) Unbound System's Energy  [=(2)] =   -7.30 kcal/mol
DOCKED: USER    
DOCKED: USER    
DOCKED: USER    NEWDPF move lig3sm1.pdbqt
DOCKED: USER    NEWDPF about 0.843000 2.729000 18.432000
DOCKED: USER    NEWDPF tran0 -0.105988 1.127873 18.794825
DOCKED: USER    NEWDPF quaternion0 0.994371 0.086549 -0.011341 0.060065
DOCKED: USER    NEWDPF axisangle0 0.996169 0.086706 -0.011362 173.112941
DOCKED: USER    NEWDPF quat0 0.996169 0.086706 -0.011362 173.112941
DOCKED: USER    NEWDPF dihe0 -76.35 170.38 -24.43 -168.05 19.85 138.19 135.70 -173.16 -3.31 -52.71 60.53 106.22 -180.00 149.00 -142.62 164.25 180.00 -132.21 -61.46 
DOCKED: USER  keepresnum = 1 
DOCKED: USER  
DOCKED: REMARK  19 active torsions:
DOCKED: REMARK  status: ('A' for Active; 'I' for Inactive)
DOCKED: REMARK    1  A    between atoms: N_1  and  CA_5 
DOCKED: REMARK    2  A    between atoms: CA_5  and  C_6 
DOCKED: REMARK    3  A    between atoms: CA_5  and  CB_8 
DOCKED: REMARK       I    between atoms: C_6  and  N_11 
DOCKED: REMARK    4  A    between atoms: N_11  and  CA_13 
DOCKED: REMARK    5  A    between atoms: CA_13  and  C_14 
DOCKED: REMARK    6  A    between atoms: CA_13  and  CB_16 
DOCKED: REMARK       I    between atoms: C_14  and  N_19 
DOCKED: REMARK    7  A    between atoms: N_19  and  CA_21 
DOCKED: REMARK    8  A    between atoms: CA_21  and  CB_28 
DOCKED: REMARK    9  A    between atoms: CA_21  and  CH@A_32 
DOCKED: REMARK   10  A    between atoms: CA_21  and  CH@B_33 
DOCKED: REMARK   11  A    between atoms: C@A_22  and  O@A_24 
DOCKED: REMARK   12  A    between atoms: C@A_22  and  CM@A_38 
DOCKED: REMARK   13  A    between atoms: C@B_23  and  O@B_26 
DOCKED: REMARK   14  A    between atoms: C@B_23  and  CM@B_39 
DOCKED: REMARK   15  A    between atoms: CB_28  and  CG_29 
DOCKED: REMARK   16  A    between atoms: CH@A_32  and  OH@A_34 
DOCKED: REMARK   17  A    between atoms: CH@A_32  and  CM@A_38 
DOCKED: REMARK   18  A    between atoms: CH@B_33  and  OH@B_36 
DOCKED: REMARK   19  A    between atoms: CH@B_33  and  CM@B_39 
DOCKED: USER                              x       y       z     vdW  Elec       q    Type
DOCKED: USER                           _______ _______ _______ _____ _____    ______ ____
DOCKED: ROOT
DOCKED: ATOM      1  C   VAL M   3      -0.385   0.944  18.798 -0.29 +0.07    +0.241 C 
DOCKED: ATOM      2  O   VAL M   3      -1.074  -0.017  18.425 -0.37 -0.10    -0.271 OA
DOCKED: ATOM      3  N   STA M   4       0.014   1.876  17.918 -0.13 -0.09    -0.345 N 
DOCKED: ATOM      4  HN  STA M   4       0.502   2.725  18.206 +0.08 +0.04    +0.163 HD
DOCKED: ENDROOT
DOCKED: BRANCH   3   5
DOCKED: ATOM      5  CA  STA M   4      -0.298   1.591  16.523 -0.34 +0.03    +0.085 C 
DOCKED: BRANCH   5   6
DOCKED: ATOM      6  CB  STA M   4      -1.777   1.944  16.277 -0.38 +0.01    +0.040 C 
DOCKED: BRANCH   6   7
DOCKED: ATOM      7  CG  STA M   4      -2.329   0.873  15.339 -0.44 -0.00    -0.020 C 
DOCKED: ATOM      8  CD1 STA M   4      -3.573   1.347  14.629 -0.41 +0.00    +0.009 C 
DOCKED: ATOM      9  CD2 STA M   4      -2.588  -0.495  15.984 -0.53 +0.00    +0.009 C 
DOCKED: ENDBRANCH   6   7
DOCKED: ENDBRANCH   5   6
DOCKED: BRANCH   5  10
DOCKED: ATOM     10  CH ASTA M   4       0.618   2.229  15.460 -0.27 +0.04    +0.150 C 
DOCKED: BRANCH  10  11
DOCKED: ATOM     11  OH ASTA M   4       1.831   2.676  16.045 -0.08 -0.10    -0.393 OA
DOCKED: ATOM     12  HH ASTA M   4       2.541   2.078  15.843 +0.08 +0.07    +0.210 HD
DOCKED: ENDBRANCH  10  11
DOCKED: BRANCH  10  13
DOCKED: ATOM     13  CM ASTA M   4       0.923   1.296  14.294 -0.35 +0.02    +0.060 C 
DOCKED: BRANCH  13  14
DOCKED: ATOM     14  C  ASTA M   4       2.375   0.891  14.117 -0.39 +0.12    +0.166 C 
DOCKED: BRANCH  14  15
DOCKED: ATOM     15  O  ASTA M   4       3.128   0.521  15.250 -0.63 -0.36    -0.401 OA
DOCKED: ATOM     16  H  ASTA M   4       2.762   0.662  16.116 -0.36 +0.09    +0.209 HD
DOCKED: ENDBRANCH  14  15
DOCKED: ENDBRANCH  13  14
DOCKED: ENDBRANCH  10  13
DOCKED: ENDBRANCH   5  10
DOCKED: BRANCH   5  17
DOCKED: ATOM     17  CH BSTA M   4       0.833   2.281  15.781 -0.26 +0.04    +0.150 C 
DOCKED: BRANCH  17  18
DOCKED: ATOM     18  OH BSTA M   4       2.061   2.153  16.472 -0.10 -0.09    -0.393 OA
DOCKED: ATOM     19  HH BSTA M   4       2.803   2.233  15.884 +0.08 +0.06    +0.210 HD
DOCKED: ENDBRANCH  17  18
DOCKED: BRANCH  17  20
DOCKED: ATOM     20  CM BSTA M   4       0.868   1.678  14.395 -0.36 +0.02    +0.060 C 
DOCKED: BRANCH  20  21
DOCKED: ATOM     21  C  BSTA M   4       2.124   1.702  13.542 -0.34 +0.06    +0.166 C 
DOCKED: BRANCH  21  22
DOCKED: ATOM     22  O  BSTA M   4       3.026   2.719  13.855 -0.14 -0.15    -0.401 OA
DOCKED: ATOM     23  H  BSTA M   4       2.849   3.173  14.671 +0.12 +0.06    +0.209 HD
DOCKED: ENDBRANCH  21  22
DOCKED: ENDBRANCH  20  21
DOCKED: ENDBRANCH  17  20
DOCKED: ENDBRANCH   5  17
DOCKED: ENDBRANCH   3   5
DOCKED: BRANCH   1  24
DOCKED: ATOM     24  CA  VAL M   3       0.062   1.013  20.257 -0.30 +0.04    +0.180 C 
DOCKED: BRANCH  24  25
DOCKED: ATOM     25  N   VAL M   3       0.670   2.306  20.375 -0.10 -0.07    -0.346 N 
DOCKED: ATOM     26  C   VAL M   2       0.047   3.440  20.097 -0.20 +0.05    +0.249 C 
DOCKED: ATOM     27  O   VAL M   2      -1.077   3.463  19.591 -0.59 -0.11    -0.271 OA
DOCKED: ATOM     28  HN  VAL M   3       1.638   2.354  20.692 +0.06 +0.03    +0.163 HD
DOCKED: BRANCH  26  29
DOCKED: ATOM     29  CA  VAL M   2       0.850   4.741  20.331 -0.24 +0.07    +0.278 C 
DOCKED: BRANCH  29  30
DOCKED: ATOM     30  N   VAL M   2       0.899   4.947  21.776 -0.14 -0.01    -0.066 N 
DOCKED: ATOM     31  HN3 VAL M   2       1.848   5.050  22.137 +0.08 +0.06    +0.275 HD
DOCKED: ATOM     32  HN2 VAL M   2       0.553   5.861  22.065 -0.00 +0.05    +0.275 HD
DOCKED: ATOM     33  HN1 VAL M   2       0.390   4.171  22.199 -0.40 -0.04    +0.275 HD
DOCKED: ENDBRANCH  29  30
DOCKED: BRANCH  29  34
DOCKED: ATOM     34  CB  VAL M   2       2.146   4.991  19.510 -0.24 +0.01    +0.017 C 
DOCKED: ATOM     35  CG1 VAL M   2       2.013   4.938  17.967 -0.27 +0.01    +0.012 C 
DOCKED: ATOM     36  CG2 VAL M   2       2.974   6.208  20.018 -0.18 +0.00    +0.012 C 
DOCKED: ENDBRANCH  29  34
DOCKED: ENDBRANCH  26  29
DOCKED: ENDBRANCH  24  25
DOCKED: BRANCH  24  37
DOCKED: ATOM     37  CB  VAL M   3      -1.156   0.915  21.284 -0.49 +0.00    +0.009 C 
DOCKED: ATOM     38  CG1 VAL M   3      -1.825  -0.486  21.278 -0.39 +0.00    +0.012 C 
DOCKED: ATOM     39  CG2 VAL M   3      -0.704   1.321  22.696 -0.37 +0.00    +0.012 C 
DOCKED: ENDBRANCH  24  37
DOCKED: ENDBRANCH   1  24
DOCKED: TORSDOF 19
DOCKED: TER
DOCKED: ENDMDL
________________________________________________________________________________


	BEGINNING GENETIC ALGORITHM DOCKING 6 of 10
Run: 6 Seed: 235289965 1209458210 [ Run 6 of 10 GA/GALS ]
Beginning LAMARCKIAN GENETIC ALGORITHM (LGA), with a maximum of 2500000 energy evaluations.

Final-Value: -15.103


	FINAL GENETIC ALGORITHM DOCKED STATE
	_______________________________________________


Detailed state:  trans -1.206 1.946 18.492 quatxyzw -0.177829 -0.081841 -0.946623 0.256094 center 0.843 2.729 18.432 ntor 19 -39.9920 -159.4203 -65.7044 -164.4930 -10.1783 124.8421 50.4616 -132.3281 -13.8328 -80.1702 -5.8346 -9.4745 27.6235 22.0894 50.0167 -149.2615 -157.5314 -65.8692 -179.4296
State:	 -1.206   1.946  18.492  -0.184 -0.085 -0.979 150.323    -39.99 -159.42  -65.70 -164.49  -10.18  124.84   50.46 -132.33  -13.83  -80.17   -5.83   -9.47   27.62   22.09   50.02 -149.26 -157.53  -65.87 -179.43

DOCKED: MODEL        6
DOCKED: USER    Run = 6
DOCKED: USER    DPF = dock.dpf
DOCKED: USER  
DOCKED: USER    Estimated Free Energy of Binding    =   -5.34 kcal/mol  [=(1)+(2)+(3)-(4)]
DOCKED: USER    Estimated Inhibition Constant, Ki   =  121.72 uM (micromolar)  [Temperature = 298.15 K]
DOCKED: USER    
DOCKED: USER    (1) Final Intermolecular Energy     =  -11.01 kcal/mol
DOCKED: USER        vdW + Hbond + desolv Energy     =  -10.73 kcal/mol
DOCKED: USER        Electrostatic Energy            =   -0.28 kcal/mol
DOCKED: USER    (2) Final Total Internal Energy     =   -4.09 kcal/mol
DOCKED: USER    (3) Torsional Free Energy           =   +5.67 kcal/mol
DOCKED: USER    (4) Unbound System's Energy  [=(2)] =   -4.09 kcal/mol
DOCKED: USER    
DOCKED: USER    
DOCKED: USER    NEWDPF move lig3sm1.pdbqt
DOCKED: USER    NEWDPF about 0.843000 2.729000 18.432000
DOCKED: USER    NEWDPF tran0 -1.206124 1.946491 18.491956
DOCKED: USER    NEWDPF quaternion0 -0.177829 -0.081841 -0.946623 0.256094
DOCKED: USER    NEWDPF axisangle0 -0.183964 -0.084665 -0.979280 150.323108
DOCKED: USER    NEWDPF quat0 -0.183964 -0.084665 -0.979280 150.323108
DOCKED: USER    NEWDPF dihe0 -39.99 -159.42 -65.70 -164.49 -10.18 124.84 50.46 -132.33 -13.83 -80.17 -5.83 -9.47 27.62 22.09 50.02 -149.26 -157.53 -65.87 -179.43 
DOCKED: USER  keepresnum = 1 
DOCKED: USER  
DOCKED: REMARK  19 active torsions:
DOCKED: REMARK  status: ('A' for Active; 'I' for Inactive)
DOCKED: REMARK    1  A    between atoms: N_1  and  CA_5 
DOCKED: REMARK    2  A    between atoms: CA_5  and  C_6 
DOCKED: REMARK    3  A    between atoms: CA_5  and  CB_8 
DOCKED: REMARK       I    between atoms: C_6  and  N_11 
DOCKED: REMARK    4  A    between atoms: N_11  and  CA_13 
DOCKED: REMARK    5  A    between atoms: CA_13  and  C_14 
DOCKED: REMARK    6  A    between atoms: CA_13  and  CB_16 
DOCKED: REMARK       I    between atoms: C_14  and  N_19 
DOCKED: REMARK    7  A    between atoms: N_19  and  CA_21 
DOCKED: REMARK    8  A    between atoms: CA_21  and  CB_28 
DOCKED: REMARK    9  A    between atoms: CA_21  and  CH@A_32 
DOCKED: REMARK   10  A    between atoms: CA_21  and  CH@B_33 
DOCKED: REMARK   11  A    between atoms: C@A_22  and  O@A_24 
DOCKED: REMARK   12  A    between atoms: C@A_22  and  CM@A_38 
DOCKED: REMARK   13  A    between atoms: C@B_23  and  O@B_26 
DOCKED: REMARK   14  A    between atoms: C@B_23  and  CM@B_39 
DOCKED: REMARK   15  A    between atoms: CB_28  and  CG_29 
DOCKED: REMARK   16  A    between atoms: CH@A_32  and  OH@A_34 
DOCKED: REMARK   17  A    between atoms: CH@A_32  and  CM@A_38 
DOCKED: REMARK   18  A    between atoms: CH@B_33  and  OH@B_36 
DOCKED: REMARK   19  A    between atoms: CH@B_33  and  CM@B_39 
DOCKED: USER                              x       y       z     vdW  Elec       q    Type
DOCKED: USER                           _______ _______ _______ _____ _____    ______ ____
DOCKED: ROOT
DOCKED: ATOM      1  C   VAL M   3      -1.025   1.675  18.419 -0.30 +0.07    +0.241 C 
DOCKED: ATOM      2  O   VAL M   3      -0.637   0.519  18.643 -0.30 -0.09    -0.271 OA
DOCKED: ATOM      3  N   STA M   4      -0.778   2.658  19.300 -0.21 -0.11    -0.345 N 
DOCKED: ATOM      4  HN  STA M   4      -1.001   3.634  19.106 +0.05 +0.09    +0.163 HD
DOCKED: ENDROOT
DOCKED: BRANCH   3   5
DOCKED: ATOM      5  CA  STA M   4      -0.168   2.232  20.555 -0.33 +0.02    +0.085 C 
DOCKED: BRANCH   5   6
DOCKED: ATOM      6  CB  STA M   4      -0.800   0.889  20.967 -0.44 +0.01    +0.040 C 
DOCKED: BRANCH   6   7
DOCKED: ATOM      7  CG  STA M   4      -0.348   0.618  22.401 -0.38 -0.01    -0.020 C 
DOCKED: ATOM      8  CD1 STA M   4      -1.081  -0.557  22.999 -0.31 +0.00    +0.009 C 
DOCKED: ATOM      9  CD2 STA M   4      -0.426   1.819  23.352 -0.26 +0.00    +0.009 C 
DOCKED: ENDBRANCH   6   7
DOCKED: ENDBRANCH   5   6
DOCKED: BRANCH   5  10
DOCKED: ATOM     10  CH ASTA M   4       1.371   2.169  20.595 -0.19 +0.03    +0.150 C 
DOCKED: BRANCH  10  11
DOCKED: ATOM     11  OH ASTA M   4       1.816   0.823  20.662 -0.11 -0.07    -0.393 OA
DOCKED: ATOM     12  HH ASTA M   4       2.581   0.695  20.114 -0.36 -0.01    +0.210 HD
DOCKED: ENDBRANCH  10  11
DOCKED: BRANCH  10  13
DOCKED: ATOM     13  CM ASTA M   4       2.031   2.871  19.414 -0.17 +0.01    +0.060 C 
DOCKED: BRANCH  13  14
DOCKED: ATOM     14  C  ASTA M   4       3.548   2.905  19.414 -0.07 +0.03    +0.166 C 
DOCKED: BRANCH  14  15
DOCKED: ATOM     15  O  ASTA M   4       4.259   1.846  20.014 -0.13 -0.08    -0.401 OA
DOCKED: ATOM     16  H  ASTA M   4       3.826   1.010  20.142 -0.44 +0.04    +0.209 HD
DOCKED: ENDBRANCH  14  15
DOCKED: ENDBRANCH  13  14
DOCKED: ENDBRANCH  10  13
DOCKED: ENDBRANCH   5  10
DOCKED: BRANCH   5  17
DOCKED: ATOM     17  CH BSTA M   4       1.316   2.376  20.269 -0.20 +0.03    +0.150 C 
DOCKED: BRANCH  17  18
DOCKED: ATOM     18  OH BSTA M   4       2.026   1.198  20.604 -0.10 -0.06    -0.393 OA
DOCKED: ATOM     19  HH BSTA M   4       2.394   0.782  19.834 -0.32 -0.04    +0.210 HD
DOCKED: ENDBRANCH  17  18
DOCKED: BRANCH  17  20
DOCKED: ATOM     20  CM BSTA M   4       1.436   2.744  18.807 -0.22 +0.01    +0.060 C 
DOCKED: BRANCH  20  21
DOCKED: ATOM     21  C  BSTA M   4       1.386   4.187  18.337 -0.25 +0.06    +0.166 C 
DOCKED: BRANCH  21  22
DOCKED: ATOM     22  O  BSTA M   4       0.228   4.536  17.640 -0.39 -0.17    -0.401 OA
DOCKED: ATOM     23  H  BSTA M   4      -0.492   3.923  17.730 -0.03 +0.08    +0.209 HD
DOCKED: ENDBRANCH  21  22
DOCKED: ENDBRANCH  20  21
DOCKED: ENDBRANCH  17  20
DOCKED: ENDBRANCH   5  17
DOCKED: ENDBRANCH   3   5
DOCKED: BRANCH   1  24
DOCKED: ATOM     24  CA  VAL M   3      -1.849   1.949  17.163 -0.32 +0.05    +0.180 C 
DOCKED: BRANCH  24  25
DOCKED: ATOM     25  N   VAL M   3      -0.941   2.634  16.292 -0.12 -0.05    -0.346 N 
DOCKED: ATOM     26  C   VAL M   2      -0.017   2.024  15.565 -0.23 +0.06    +0.249 C 
DOCKED: ATOM     27  O   VAL M   2       0.215   0.820  15.677 -0.69 -0.15    -0.271 OA
DOCKED: ATOM     28  HN  VAL M   3      -1.010   3.649  16.227 -0.48 -0.03    +0.163 HD
DOCKED: BRANCH  26  29
DOCKED: ATOM     29  CA  VAL M   2       0.841   2.926  14.646 -0.17 +0.05    +0.278 C 
DOCKED: BRANCH  29  30
DOCKED: ATOM     30  N   VAL M   2       0.015   4.082  14.306 -0.17 +0.00    -0.066 N 
DOCKED: ATOM     31  HN3 VAL M   2      -0.985   3.884  14.330 -0.36 -0.05    +0.275 HD
DOCKED: ATOM     32  HN2 VAL M   2       0.019   4.805  15.026 -0.29 -0.05    +0.275 HD
DOCKED: ATOM     33  HN1 VAL M   2       0.339   4.415  13.398 +0.17 +0.02    +0.275 HD
DOCKED: ENDBRANCH  29  30
DOCKED: BRANCH  29  34
DOCKED: ATOM     34  CB  VAL M   2       2.334   3.170  15.002 -0.32 +0.00    +0.017 C 
DOCKED: ATOM     35  CG1 VAL M   2       3.375   2.266  14.296 -0.42 +0.01    +0.012 C 
DOCKED: ATOM     36  CG2 VAL M   2       2.728   4.677  15.011 -0.41 +0.00    +0.012 C 
DOCKED: ENDBRANCH  29  34
DOCKED: ENDBRANCH  26  29
DOCKED: ENDBRANCH  24  25
DOCKED: BRANCH  24  37
DOCKED: ATOM     37  CB  VAL M   3      -2.349   0.613  16.446 -0.51 +0.00    +0.009 C 
DOCKED: ATOM     38  CG1 VAL M   3      -3.196  -0.284  17.390 -0.52 +0.00    +0.012 C 
DOCKED: ATOM     39  CG2 VAL M   3      -3.109   0.948  15.153 -0.44 +0.00    +0.012 C 
DOCKED: ENDBRANCH  24  37
DOCKED: ENDBRANCH   1  24
DOCKED: TORSDOF 19
DOCKED: TER
DOCKED: ENDMDL
________________________________________________________________________________


	BEGINNING GENETIC ALGORITHM DOCKING 7 of 10
Run: 7 Seed: 503114697 1130740849 [ Run 7 of 10 GA/GALS ]
Beginning LAMARCKIAN GENETIC ALGORITHM (LGA), with a maximum of 2500000 energy evaluations.

Final-Value: -15.155


	FINAL GENETIC ALGORITHM DOCKED STATE
	_______________________________________________


Detailed state:  trans 0.445 2.970 18.197 quatxyzw -0.268329 0.559343 -0.225728 -0.751121 center 0.843 2.729 18.432 ntor 19 -179.9352 138.5497 -131.8030 -179.8553 -74.5502 -161.0889 152.6058 81.8827 -7.7186 2.7429 -64.8704 -159.0898 -82.1570 99.7906 -130.6234 -161.7517 179.9929 132.2399 -2.3061
State:	  0.445   2.970  18.197  -0.406  0.847 -0.342 -82.625   -179.94  138.55 -131.80 -179.86  -74.55 -161.09  152.61   81.88   -7.72    2.74  -64.87 -159.09  -82.16   99.79 -130.62 -161.75  179.99  132.24   -2.31

DOCKED: MODEL        7
DOCKED: USER    Run = 7
DOCKED: USER    DPF = dock.dpf
DOCKED: USER  
DOCKED: USER    Estimated Free Energy of Binding    =   -3.32 kcal/mol  [=(1)+(2)+(3)-(4)]
DOCKED: USER    Estimated Inhibition Constant, Ki   =    3.68 mM (millimolar)  [Temperature = 298.15 K]
DOCKED: USER    
DOCKED: USER    (1) Final Intermolecular Energy     =   -8.99 kcal/mol
DOCKED: USER        vdW + Hbond + desolv Energy     =   -8.81 kcal/mol
DOCKED: USER        Electrostatic Energy            =   -0.17 kcal/mol
DOCKED: USER    (2) Final Total Internal Energy     =   -6.17 kcal/mol
DOCKED: USER    (3) Torsional Free Energy           =   +5.67 kcal/mol
DOCKED: USER    (4) Unbound System's Energy  [=(2)] =   -6.17 kcal/mol
DOCKED: USER    
DOCKED: USER    
DOCKED: USER    NEWDPF move lig3sm1.pdbqt
DOCKED: USER    NEWDPF about 0.843000 2.729000 18.432000
DOCKED: USER    NEWDPF tran0 0.445293 2.969769 18.197338
DOCKED: USER    NEWDPF quaternion0 -0.268329 0.559343 -0.225728 -0.751121
DOCKED: USER    NEWDPF axisangle0 -0.406457 0.847277 -0.341926 -82.624894
DOCKED: USER    NEWDPF quat0 -0.406457 0.847277 -0.341926 -82.624894
DOCKED: USER    NEWDPF dihe0 -179.94 138.55 -131.80 -179.86 -74.55 -161.09 152.61 81.88 -7.72 2.74 -64.87 -159.09 -82.16 99.79 -130.62 -161.75 179.99 132.24 -2.31 
DOCKED: USER  keepresnum = 1 
DOCKED: USER  
DOCKED: REMARK  19 active torsions:
DOCKED: REMARK  status: ('A' for Active; 'I' for Inactive)
DOCKED: REMARK    1  A    between atoms: N_1  and  CA_5 
DOCKED: REMARK    2  A    between atoms: CA_5  and  C_6 
DOCKED: REMARK    3  A    between atoms: CA_5  and  CB_8 
DOCKED: REMARK       I    between atoms: C_6  and  N_11 
DOCKED: REMARK    4  A    between atoms: N_11  and  CA_13 
DOCKED: REMARK    5  A    between atoms: CA_13  and  C_14 
DOCKED: REMARK    6  A    between atoms: CA_13  and  CB_16 
DOCKED: REMARK       I    between atoms: C_14  and  N_19 
DOCKED: REMARK    7  A    between atoms: N_19  and  CA_21 
DOCKED: REMARK    8  A    between atoms: CA_21  and  CB_28 
DOCKED: REMARK    9  A    between atoms: CA_21  and  CH@A_32 
DOCKED: REMARK   10  A    between atoms: CA_21  and  CH@B_33 
DOCKED: REMARK   11  A    between atoms: C@A_22  and  O@A_24 
DOCKED: REMARK   12  A    between atoms: C@A_22  and  CM@A_38 
DOCKED: REMARK   13  A    between atoms: C@B_23  and  O@B_26 
DOCKED: REMARK   14  A    between atoms: C@B_23  and  CM@B_39 
DOCKED: REMARK   15  A    between atoms: CB_28  and  CG_29 
DOCKED: REMARK   16  A    between atoms: CH@A_32  and  OH@A_34 
DOCKED: REMARK   17  A    between atoms: CH@A_32  and  CM@A_38 
DOCKED: REMARK   18  A    between atoms: CH@B_33  and  OH@B_36 
DOCKED: REMARK   19  A    between atoms: CH@B_33  and  CM@B_39 
DOCKED: USER                              x       y       z     vdW  Elec       q    Type
DOCKED: USER                           _______ _______ _______ _____ _____    ______ ____
DOCKED: ROOT
DOCKED: ATOM      1  C   VAL M   3       0.351   3.263  18.328 -0.26 +0.07    +0.241 C 
DOCKED: ATOM      2  O   VAL M   3       0.426   4.496  18.428 -0.73 -0.14    -0.271 OA
DOCKED: ATOM      3  N   STA M   4       1.409   2.492  18.627 -0.06 -0.05    -0.345 N 
DOCKED: ATOM      4  HN  STA M   4       1.355   1.473  18.644 -0.26 -0.01    +0.163 HD
DOCKED: ENDROOT
DOCKED: BRANCH   3   5
DOCKED: ATOM      5  CA  STA M   4       2.642   3.212  18.927 -0.14 +0.02    +0.085 C 
DOCKED: BRANCH   5   6
DOCKED: ATOM      6  CB  STA M   4       3.324   2.525  20.124 -0.10 +0.01    +0.040 C 
DOCKED: BRANCH   6   7
DOCKED: ATOM      7  CG  STA M   4       2.712   3.135  21.383 -0.12 -0.00    -0.020 C 
DOCKED: ATOM      8  CD1 STA M   4       1.766   2.175  22.060 -0.18 +0.00    +0.009 C 
DOCKED: ATOM      9  CD2 STA M   4       2.024   4.492  21.187 -0.20 +0.00    +0.009 C 
DOCKED: ENDBRANCH   6   7
DOCKED: ENDBRANCH   5   6
DOCKED: BRANCH   5  10
DOCKED: ATOM     10  CH ASTA M   4       3.626   3.422  17.760 -0.12 +0.03    +0.150 C 
DOCKED: BRANCH  10  11
DOCKED: ATOM     11  OH ASTA M   4       3.572   2.331  16.855 -0.06 -0.07    -0.393 OA
DOCKED: ATOM     12  HH ASTA M   4       2.938   1.685  17.145 -0.47 -0.02    +0.210 HD
DOCKED: ENDBRANCH  10  11
DOCKED: BRANCH  10  13
DOCKED: ATOM     13  CM ASTA M   4       3.396   4.727  17.008 -0.23 +0.02    +0.060 C 
DOCKED: BRANCH  13  14
DOCKED: ATOM     14  C  ASTA M   4       4.542   5.722  17.020 -0.19 +0.06    +0.166 C 
DOCKED: BRANCH  14  15
DOCKED: ATOM     15  O  ASTA M   4       5.331   5.876  15.862 -0.19 -0.10    -0.401 OA
DOCKED: ATOM     16  H  ASTA M   4       5.586   5.105  15.369 -0.49 -0.01    +0.209 HD
DOCKED: ENDBRANCH  14  15
DOCKED: ENDBRANCH  13  14
DOCKED: ENDBRANCH  10  13
DOCKED: ENDBRANCH   5  10
DOCKED: BRANCH   5  17
DOCKED: ATOM     17  CH BSTA M   4       3.306   3.314  17.565 -0.14 +0.03    +0.150 C 
DOCKED: BRANCH  17  18
DOCKED: ATOM     18  OH BSTA M   4       2.411   3.809  16.587 -0.10 -0.11    -0.393 OA
DOCKED: ATOM     19  HH BSTA M   4       1.955   4.584  16.891 +0.08 +0.08    +0.210 HD
DOCKED: ENDBRANCH  17  18
DOCKED: BRANCH  17  20
DOCKED: ATOM     20  CM BSTA M   4       4.525   4.189  17.748 -0.14 +0.02    +0.060 C 
DOCKED: BRANCH  20  21
DOCKED: ATOM     21  C  BSTA M   4       4.414   5.636  18.197 -0.11 +0.05    +0.166 C 
DOCKED: BRANCH  21  22
DOCKED: ATOM     22  O  BSTA M   4       3.110   6.128  18.270 -0.28 -0.19    -0.401 OA
DOCKED: ATOM     23  H  BSTA M   4       2.434   5.504  18.033 +0.07 +0.11    +0.209 HD
DOCKED: ENDBRANCH  21  22
DOCKED: ENDBRANCH  20  21
DOCKED: ENDBRANCH  17  20
DOCKED: ENDBRANCH   5  17
DOCKED: ENDBRANCH   3   5
DOCKED: BRANCH   1  24
DOCKED: ATOM     24  CA  VAL M   3      -0.935   2.639  17.790 -0.33 +0.05    +0.180 C 
DOCKED: BRANCH  24  25
DOCKED: ATOM     25  N   VAL M   3      -0.708   2.533  16.379 -0.12 -0.06    -0.346 N 
DOCKED: ATOM     26  C   VAL M   2       0.308   1.873  15.844 -0.23 +0.07    +0.249 C 
DOCKED: ATOM     27  O   VAL M   2       1.214   1.398  16.530 -0.20 -0.08    -0.271 OA
DOCKED: ATOM     28  HN  VAL M   3      -1.367   2.992  15.750 -0.21 -0.00    +0.163 HD
DOCKED: BRANCH  26  29
DOCKED: ATOM     29  CA  VAL M   2       0.361   1.827  14.299 -0.20 +0.05    +0.278 C 
DOCKED: BRANCH  29  30
DOCKED: ATOM     30  N   VAL M   2      -1.011   1.630  13.840 -0.31 -0.00    -0.066 N 
DOCKED: ATOM     31  HN3 VAL M   2      -1.090   0.948  13.086 -0.36 -0.07    +0.275 HD
DOCKED: ATOM     32  HN2 VAL M   2      -1.596   1.140  14.517 +0.15 +0.05    +0.275 HD
DOCKED: ATOM     33  HN1 VAL M   2      -1.370   2.551  13.588 +0.15 -0.01    +0.275 HD
DOCKED: ENDBRANCH  29  30
DOCKED: BRANCH  29  34
DOCKED: ATOM     34  CB  VAL M   2       1.248   2.854  13.539 -0.36 +0.00    +0.017 C 
DOCKED: ATOM     35  CG1 VAL M   2       1.082   4.343  13.934 -0.43 +0.00    +0.012 C 
DOCKED: ATOM     36  CG2 VAL M   2       2.735   2.409  13.413 -0.45 +0.00    +0.012 C 
DOCKED: ENDBRANCH  29  34
DOCKED: ENDBRANCH  26  29
DOCKED: ENDBRANCH  24  25
DOCKED: BRANCH  24  37
DOCKED: ATOM     37  CB  VAL M   3      -1.212   1.183  18.383 -0.47 +0.00    +0.009 C 
DOCKED: ATOM     38  CG1 VAL M   3      -1.438   1.202  19.919 -0.49 +0.00    +0.012 C 
DOCKED: ATOM     39  CG2 VAL M   3      -2.384   0.516  17.647 -0.53 +0.00    +0.012 C 
DOCKED: ENDBRANCH  24  37
DOCKED: ENDBRANCH   1  24
DOCKED: TORSDOF 19
DOCKED: TER
DOCKED: ENDMDL
________________________________________________________________________________


	BEGINNING GENETIC ALGORITHM DOCKING 8 of 10
Run: 8 Seed: 1178947430 225417917 [ Run 8 of 10 GA/GALS ]
Beginning LAMARCKIAN GENETIC ALGORITHM (LGA), with a maximum of 2500000 energy evaluations.

Final-Value: -17.314


	FINAL GENETIC ALGORITHM DOCKED STATE
	_______________________________________________


Detailed state:  trans 2.098 3.813 18.127 quatxyzw -0.434047 0.856694 -0.170060 0.220814 center 0.843 2.729 18.432 ntor 19 -114.3131 175.7854 43.5735 -169.0147 66.0205 58.4052 -166.6568 -145.5311 -152.5436 -28.8236 125.9314 145.4605 72.5937 165.6592 -22.7032 -68.8557 69.7475 171.5136 16.6790
State:	  2.098   3.813  18.127  -0.445  0.878 -0.174 154.486   -114.31  175.79   43.57 -169.01   66.02   58.41 -166.66 -145.53 -152.54  -28.82  125.93  145.46   72.59  165.66  -22.70  -68.86   69.75  171.51   16.68

DOCKED: MODEL        8
DOCKED: USER    Run = 8
DOCKED: USER    DPF = dock.dpf
DOCKED: USER  
DOCKED: USER    Estimated Free Energy of Binding    =   -5.75 kcal/mol  [=(1)+(2)+(3)-(4)]
DOCKED: USER    Estimated Inhibition Constant, Ki   =   61.27 uM (micromolar)  [Temperature = 298.15 K]
DOCKED: USER    
DOCKED: USER    (1) Final Intermolecular Energy     =  -11.41 kcal/mol
DOCKED: USER        vdW + Hbond + desolv Energy     =  -11.27 kcal/mol
DOCKED: USER        Electrostatic Energy            =   -0.14 kcal/mol
DOCKED: USER    (2) Final Total Internal Energy     =   -5.90 kcal/mol
DOCKED: USER    (3) Torsional Free Energy           =   +5.67 kcal/mol
DOCKED: USER    (4) Unbound System's Energy  [=(2)] =   -5.90 kcal/mol
DOCKED: USER    
DOCKED: USER    
DOCKED: USER    NEWDPF move lig3sm1.pdbqt
DOCKED: USER    NEWDPF about 0.843000 2.729000 18.432000
DOCKED: USER    NEWDPF tran0 2.098279 3.813212 18.127462
DOCKED: USER    NEWDPF quaternion0 -0.434047 0.856694 -0.170060 0.220814
DOCKED: USER    NEWDPF axisangle0 -0.445032 0.878376 -0.174364 154.486331
DOCKED: USER    NEWDPF quat0 -0.445032 0.878376 -0.174364 154.486331
DOCKED: USER    NEWDPF dihe0 -114.31 175.79 43.57 -169.01 66.02 58.41 -166.66 -145.53 -152.54 -28.82 125.93 145.46 72.59 165.66 -22.70 -68.86 69.75 171.51 16.68 
DOCKED: USER  keepresnum = 1 
DOCKED: USER  
DOCKED: REMARK  19 active torsions:
DOCKED: REMARK  status: ('A' for Active; 'I' for Inactive)
DOCKED: REMARK    1  A    between atoms: N_1  and  CA_5 
DOCKED: REMARK    2  A    between atoms: CA_5  and  C_6 
DOCKED: REMARK    3  A    between atoms: CA_5  and  CB_8 
DOCKED: REMARK       I    between atoms: C_6  and  N_11 
DOCKED: REMARK    4  A    between atoms: N_11  and  CA_13 
DOCKED: REMARK    5  A    between atoms: CA_13  and  C_14 
DOCKED: REMARK    6  A    between atoms: CA_13  and  CB_16 
DOCKED: REMARK       I    between atoms: C_14  and  N_19 
DOCKED: REMARK    7  A    between atoms: N_19  and  CA_21 
DOCKED: REMARK    8  A    between atoms: CA_21  and  CB_28 
DOCKED: REMARK    9  A    between atoms: CA_21  and  CH@A_32 
DOCKED: REMARK   10  A    between atoms: CA_21  and  CH@B_33 
DOCKED: REMARK   11  A    between atoms: C@A_22  and  O@A_24 
DOCKED: REMARK   12  A    between atoms: C@A_22  and  CM@A_38 
DOCKED: REMARK   13  A    between atoms: C@B_23  and  O@B_26 
DOCKED: REMARK   14  A    between atoms: C@B_23  and  CM@B_39 
DOCKED: REMARK   15  A    between atoms: CB_28  and  CG_29 
DOCKED: REMARK   16  A    between atoms: CH@A_32  and  OH@A_34 
DOCKED: REMARK   17  A    between atoms: CH@A_32  and  CM@A_38 
DOCKED: REMARK   18  A    between atoms: CH@B_33  and  OH@B_36 
DOCKED: REMARK   19  A    between atoms: CH@B_33  and  CM@B_39 
DOCKED: USER                              x       y       z     vdW  Elec       q    Type
DOCKED: USER                           _______ _______ _______ _____ _____    ______ ____
DOCKED: ROOT
DOCKED: ATOM      1  C   VAL M   3       2.155   4.101  17.966 -0.17 +0.07    +0.241 C 
DOCKED: ATOM      2  O   VAL M   3       1.822   5.017  17.202 -0.78 -0.13    -0.271 OA
DOCKED: ATOM      3  N   STA M   4       2.237   2.837  17.518 -0.05 -0.06    -0.345 N 
DOCKED: ATOM      4  HN  STA M   4       2.595   2.076  18.095 -0.46 -0.02    +0.163 HD
DOCKED: ENDROOT
DOCKED: BRANCH   3   5
DOCKED: ATOM      5  CA  STA M   4       1.778   2.630  16.150 -0.25 +0.02    +0.085 C 
DOCKED: BRANCH   5   6
DOCKED: ATOM      6  CB  STA M   4       2.433   1.344  15.610 -0.29 +0.02    +0.040 C 
DOCKED: BRANCH   6   7
DOCKED: ATOM      7  CG  STA M   4       3.299   1.762  14.423 -0.45 -0.01    -0.020 C 
DOCKED: ATOM      8  CD1 STA M   4       2.761   1.211  13.126 -0.52 +0.01    +0.009 C 
DOCKED: ATOM      9  CD2 STA M   4       4.791   1.432  14.550 -0.42 +0.01    +0.009 C 
DOCKED: ENDBRANCH   6   7
DOCKED: ENDBRANCH   5   6
DOCKED: BRANCH   5  10
DOCKED: ATOM     10  CH ASTA M   4       0.255   2.627  15.919 -0.26 +0.03    +0.150 C 
DOCKED: BRANCH  10  11
DOCKED: ATOM     11  OH ASTA M   4      -0.390   3.521  16.812 -0.16 -0.05    -0.393 OA
DOCKED: ATOM     12  HH ASTA M   4      -0.138   4.418  16.629 -0.47 +0.00    +0.210 HD
DOCKED: ENDBRANCH  10  11
DOCKED: BRANCH  10  13
DOCKED: ATOM     13  CM ASTA M   4      -0.135   2.962  14.484 -0.29 +0.00    +0.060 C 
DOCKED: BRANCH  13  14
DOCKED: ATOM     14  C  ASTA M   4       0.483   4.216  13.895 -0.30 +0.01    +0.166 C 
DOCKED: BRANCH  14  15
DOCKED: ATOM     15  O  ASTA M   4       0.690   5.336  14.727 -0.19 -0.04    -0.401 OA
DOCKED: ATOM     16  H  ASTA M   4       0.385   5.308  15.626 -0.33 +0.01    +0.209 HD
DOCKED: ENDBRANCH  14  15
DOCKED: ENDBRANCH  13  14
DOCKED: ENDBRANCH  10  13
DOCKED: ENDBRANCH   5  10
DOCKED: BRANCH   5  17
DOCKED: ATOM     17  CH BSTA M   4       0.273   2.780  16.278 -0.26 +0.03    +0.150 C 
DOCKED: BRANCH  17  18
DOCKED: ATOM     18  OH BSTA M   4      -0.323   3.112  15.038 -0.10 -0.01    -0.393 OA
DOCKED: ATOM     19  HH BSTA M   4      -0.976   3.795  15.137 -0.43 -0.07    +0.210 HD
DOCKED: ENDBRANCH  17  18
DOCKED: BRANCH  17  20
DOCKED: ATOM     20  CM BSTA M   4      -0.240   1.478  16.850 -0.36 +0.02    +0.060 C 
DOCKED: BRANCH  20  21
DOCKED: ATOM     21  C  BSTA M   4      -1.198   0.586  16.081 -0.27 +0.07    +0.166 C 
DOCKED: BRANCH  21  22
DOCKED: ATOM     22  O  BSTA M   4      -1.018   0.588  14.697 -0.66 -0.19    -0.401 OA
DOCKED: ATOM     23  H  BSTA M   4      -0.222   1.012  14.399 +0.03 +0.07    +0.209 HD
DOCKED: ENDBRANCH  21  22
DOCKED: ENDBRANCH  20  21
DOCKED: ENDBRANCH  17  20
DOCKED: ENDBRANCH   5  17
DOCKED: ENDBRANCH   3   5
DOCKED: BRANCH   1  24
DOCKED: ATOM     24  CA  VAL M   3       2.400   4.417  19.440 -0.14 +0.05    +0.180 C 
DOCKED: BRANCH  24  25
DOCKED: ATOM     25  N   VAL M   3       1.645   3.421  20.141 -0.07 -0.08    -0.346 N 
DOCKED: ATOM     26  C   VAL M   2       0.361   3.182  19.926 -0.24 +0.06    +0.249 C 
DOCKED: ATOM     27  O   VAL M   2      -0.321   3.891  19.184 -0.89 -0.14    -0.271 OA
DOCKED: ATOM     28  HN  VAL M   3       2.126   2.863  20.847 +0.05 +0.03    +0.163 HD
DOCKED: BRANCH  26  29
DOCKED: ATOM     29  CA  VAL M   2      -0.272   2.033  20.746 -0.22 +0.05    +0.278 C 
DOCKED: BRANCH  29  30
DOCKED: ATOM     30  N   VAL M   2       0.038   2.300  22.147 -0.21 -0.01    -0.066 N 
DOCKED: ATOM     31  HN3 VAL M   2       0.319   3.265  22.322 -0.34 -0.01    +0.275 HD
DOCKED: ATOM     32  HN2 VAL M   2      -0.784   2.295  22.750 -0.16 +0.02    +0.275 HD
DOCKED: ATOM     33  HN1 VAL M   2       0.745   1.619  22.425 +0.12 +0.06    +0.275 HD
DOCKED: ENDBRANCH  29  30
DOCKED: BRANCH  29  34
DOCKED: ATOM     34  CB  VAL M   2      -1.708   1.550  20.391 -0.50 +0.00    +0.017 C 
DOCKED: ATOM     35  CG1 VAL M   2      -1.831   0.532  19.231 -0.51 +0.00    +0.012 C 
DOCKED: ATOM     36  CG2 VAL M   2      -2.557   1.171  21.641 -0.48 +0.00    +0.012 C 
DOCKED: ENDBRANCH  29  34
DOCKED: ENDBRANCH  26  29
DOCKED: ENDBRANCH  24  25
DOCKED: BRANCH  24  37
DOCKED: ATOM     37  CB  VAL M   3       3.937   4.292  19.854 -0.08 +0.00    +0.009 C 
DOCKED: ATOM     38  CG1 VAL M   3       4.358   2.822  20.127 -0.09 +0.00    +0.012 C 
DOCKED: ATOM     39  CG2 VAL M   3       4.835   4.950  18.795 -0.09 +0.00    +0.012 C 
DOCKED: ENDBRANCH  24  37
DOCKED: ENDBRANCH   1  24
DOCKED: TORSDOF 19
DOCKED: TER
DOCKED: ENDMDL
________________________________________________________________________________


	BEGINNING GENETIC ALGORITHM DOCKING 9 of 10
Run: 9 Seed: 1276720209 2033001781 [ Run 9 of 10 GA/GALS ]
Beginning LAMARCKIAN GENETIC ALGORITHM (LGA), with a maximum of 2500000 energy evaluations.

Final-Value: -16.194


	FINAL GENETIC ALGORITHM DOCKED STATE
	_______________________________________________


Detailed state:  trans -0.169 0.994 19.560 quatxyzw -0.757229 0.595458 0.191825 0.187715 center 0.843 2.729 18.432 ntor 19 -179.7914 -106.3363 -103.4271 -180.0000 179.9870 -173.5118 -145.3311 -40.1270 -151.2466 -52.4596 180.0000 130.0052 -180.0000 88.3909 89.5609 -151.2677 -57.6546 -38.1959 168.9243
State:	 -0.169   0.994  19.560  -0.771  0.606  0.195 158.361   -179.79 -106.34 -103.43 -180.00  179.99 -173.51 -145.33  -40.13 -151.25  -52.46  180.00  130.01 -180.00   88.39   89.56 -151.27  -57.65  -38.20  168.92

DOCKED: MODEL        9
DOCKED: USER    Run = 9
DOCKED: USER    DPF = dock.dpf
DOCKED: USER  
DOCKED: USER    Estimated Free Energy of Binding    =   -3.41 kcal/mol  [=(1)+(2)+(3)-(4)]
DOCKED: USER    Estimated Inhibition Constant, Ki   =    3.18 mM (millimolar)  [Temperature = 298.15 K]
DOCKED: USER    
DOCKED: USER    (1) Final Intermolecular Energy     =   -9.07 kcal/mol
DOCKED: USER        vdW + Hbond + desolv Energy     =   -9.13 kcal/mol
DOCKED: USER        Electrostatic Energy            =   +0.06 kcal/mol
DOCKED: USER    (2) Final Total Internal Energy     =   -7.12 kcal/mol
DOCKED: USER    (3) Torsional Free Energy           =   +5.67 kcal/mol
DOCKED: USER    (4) Unbound System's Energy  [=(2)] =   -7.12 kcal/mol
DOCKED: USER    
DOCKED: USER    
DOCKED: USER    NEWDPF move lig3sm1.pdbqt
DOCKED: USER    NEWDPF about 0.843000 2.729000 18.432000
DOCKED: USER    NEWDPF tran0 -0.169423 0.994425 19.560477
DOCKED: USER    NEWDPF quaternion0 -0.757229 0.595458 0.191825 0.187715
DOCKED: USER    NEWDPF axisangle0 -0.770934 0.606235 0.195297 158.361061
DOCKED: USER    NEWDPF quat0 -0.770934 0.606235 0.195297 158.361061
DOCKED: USER    NEWDPF dihe0 -179.79 -106.34 -103.43 -180.00 179.99 -173.51 -145.33 -40.13 -151.25 -52.46 180.00 130.01 -180.00 88.39 89.56 -151.27 -57.65 -38.20 168.92 
DOCKED: USER  keepresnum = 1 
DOCKED: USER  
DOCKED: REMARK  19 active torsions:
DOCKED: REMARK  status: ('A' for Active; 'I' for Inactive)
DOCKED: REMARK    1  A    between atoms: N_1  and  CA_5 
DOCKED: REMARK    2  A    between atoms: CA_5  and  C_6 
DOCKED: REMARK    3  A    between atoms: CA_5  and  CB_8 
DOCKED: REMARK       I    between atoms: C_6  and  N_11 
DOCKED: REMARK    4  A    between atoms: N_11  and  CA_13 
DOCKED: REMARK    5  A    between atoms: CA_13  and  C_14 
DOCKED: REMARK    6  A    between atoms: CA_13  and  CB_16 
DOCKED: REMARK       I    between atoms: C_14  and  N_19 
DOCKED: REMARK    7  A    between atoms: N_19  and  CA_21 
DOCKED: REMARK    8  A    between atoms: CA_21  and  CB_28 
DOCKED: REMARK    9  A    between atoms: CA_21  and  CH@A_32 
DOCKED: REMARK   10  A    between atoms: CA_21  and  CH@B_33 
DOCKED: REMARK   11  A    between atoms: C@A_22  and  O@A_24 
DOCKED: REMARK   12  A    between atoms: C@A_22  and  CM@A_38 
DOCKED: REMARK   13  A    between atoms: C@B_23  and  O@B_26 
DOCKED: REMARK   14  A    between atoms: C@B_23  and  CM@B_39 
DOCKED: REMARK   15  A    between atoms: CB_28  and  CG_29 
DOCKED: REMARK   16  A    between atoms: CH@A_32  and  OH@A_34 
DOCKED: REMARK   17  A    between atoms: CH@A_32  and  CM@A_38 
DOCKED: REMARK   18  A    between atoms: CH@B_33  and  OH@B_36 
DOCKED: REMARK   19  A    between atoms: CH@B_33  and  CM@B_39 
DOCKED: USER                              x       y       z     vdW  Elec       q    Type
DOCKED: USER                           _______ _______ _______ _____ _____    ______ ____
DOCKED: ROOT
DOCKED: ATOM      1  C   VAL M   3      -0.337   1.265  19.662 -0.28 +0.06    +0.241 C 
DOCKED: ATOM      2  O   VAL M   3      -1.383   1.876  19.924 -0.31 -0.07    -0.271 OA
DOCKED: ATOM      3  N   STA M   4      -0.102   0.822  18.416 -0.17 -0.10    -0.345 N 
DOCKED: ATOM      4  HN  STA M   4       0.786   0.398  18.147 -0.24 +0.03    +0.163 HD
DOCKED: ENDROOT
DOCKED: BRANCH   3   5
DOCKED: ATOM      5  CA  STA M   4      -1.203   0.990  17.476 -0.42 +0.03    +0.085 C 
DOCKED: BRANCH   5   6
DOCKED: ATOM      6  CB  STA M   4      -2.483   0.429  18.125 -0.49 +0.01    +0.040 C 
DOCKED: BRANCH   6   7
DOCKED: ATOM      7  CG  STA M   4      -3.260  -0.276  17.016 -0.58 -0.00    -0.020 C 
DOCKED: ATOM      8  CD1 STA M   4      -2.528  -0.208  15.698 -0.53 +0.00    +0.009 C 
DOCKED: ATOM      9  CD2 STA M   4      -4.709   0.190  16.830 -0.52 +0.00    +0.009 C 
DOCKED: ENDBRANCH   6   7
DOCKED: ENDBRANCH   5   6
DOCKED: BRANCH   5  10
DOCKED: ATOM     10  CH ASTA M   4      -1.430   2.408  16.915 -0.33 +0.03    +0.150 C 
DOCKED: BRANCH  10  11
DOCKED: ATOM     11  OH ASTA M   4      -1.336   3.377  17.947 -0.41 -0.14    -0.393 OA
DOCKED: ATOM     12  HH ASTA M   4      -1.148   2.962  18.781 +0.11 +0.08    +0.210 HD
DOCKED: ENDBRANCH  10  11
DOCKED: BRANCH  10  13
DOCKED: ATOM     13  CM ASTA M   4      -0.474   2.765  15.784 -0.27 +0.01    +0.060 C 
DOCKED: BRANCH  13  14
DOCKED: ATOM     14  C  ASTA M   4       0.481   1.672  15.340 -0.29 +0.05    +0.166 C 
DOCKED: BRANCH  14  15
DOCKED: ATOM     15  O  ASTA M   4       0.104   0.818  14.284 -0.57 -0.16    -0.401 OA
DOCKED: ATOM     16  H  ASTA M   4       0.108   1.152  13.394 -0.47 -0.03    +0.209 HD
DOCKED: ENDBRANCH  14  15
DOCKED: ENDBRANCH  13  14
DOCKED: ENDBRANCH  10  13
DOCKED: ENDBRANCH   5  10
DOCKED: BRANCH   5  17
DOCKED: ATOM     17  CH BSTA M   4      -1.074   2.447  17.069 -0.32 +0.03    +0.150 C 
DOCKED: BRANCH  17  18
DOCKED: ATOM     18  OH BSTA M   4      -1.820   3.293  17.924 -0.26 -0.14    -0.393 OA
DOCKED: ATOM     19  HH BSTA M   4      -1.383   3.421  18.757 +0.09 +0.11    +0.210 HD
DOCKED: ENDBRANCH  17  18
DOCKED: BRANCH  17  20
DOCKED: ATOM     20  CM BSTA M   4       0.405   2.762  17.069 -0.32 +0.01    +0.060 C 
DOCKED: BRANCH  20  21
DOCKED: ATOM     21  C  BSTA M   4       0.959   4.012  17.732 -0.27 +0.05    +0.166 C 
DOCKED: BRANCH  21  22
DOCKED: ATOM     22  O  BSTA M   4       0.609   4.168  19.074 -0.62 -0.16    -0.401 OA
DOCKED: ATOM     23  H  BSTA M   4       0.062   3.476  19.426 +0.09 +0.07    +0.209 HD
DOCKED: ENDBRANCH  21  22
DOCKED: ENDBRANCH  20  21
DOCKED: ENDBRANCH  17  20
DOCKED: ENDBRANCH   5  17
DOCKED: ENDBRANCH   3   5
DOCKED: BRANCH   1  24
DOCKED: ATOM     24  CA  VAL M   3       0.644   0.960  20.792 -0.26 +0.04    +0.180 C 
DOCKED: BRANCH  24  25
DOCKED: ATOM     25  N   VAL M   3       1.337   2.198  20.997 -0.08 -0.07    -0.346 N 
DOCKED: ATOM     26  C   VAL M   2       2.283   2.370  21.906 -0.08 +0.06    +0.249 C 
DOCKED: ATOM     27  O   VAL M   2       2.558   1.503  22.738 -0.05 -0.08    -0.271 OA
DOCKED: ATOM     28  HN  VAL M   3       1.087   2.992  20.407 +0.07 +0.03    +0.163 HD
DOCKED: BRANCH  26  29
DOCKED: ATOM     29  CA  VAL M   2       2.952   3.764  21.948 -0.03 +0.07    +0.278 C 
DOCKED: BRANCH  29  30
DOCKED: ATOM     30  N   VAL M   2       2.905   4.290  20.586 -0.08 -0.02    -0.066 N 
DOCKED: ATOM     31  HN3 VAL M   2       2.463   5.207  20.523 +0.09 +0.08    +0.275 HD
DOCKED: ATOM     32  HN2 VAL M   2       3.820   4.565  20.228 +0.06 +0.08    +0.275 HD
DOCKED: ATOM     33  HN1 VAL M   2       2.445   3.581  20.015 +0.09 +0.06    +0.275 HD
DOCKED: ENDBRANCH  29  30
DOCKED: BRANCH  29  34
DOCKED: ATOM     34  CB  VAL M   2       2.620   4.731  23.120 -0.11 +0.00    +0.017 C 
DOCKED: ATOM     35  CG1 VAL M   2       3.160   6.178  23.002 -0.09 +0.00    +0.012 C 
DOCKED: ATOM     36  CG2 VAL M   2       1.132   4.660  23.574 -0.24 +0.00    +0.012 C 
DOCKED: ENDBRANCH  29  34
DOCKED: ENDBRANCH  26  29
DOCKED: ENDBRANCH  24  25
DOCKED: BRANCH  24  37
DOCKED: ATOM     37  CB  VAL M   3      -0.085   0.542  22.150 -0.37 +0.00    +0.009 C 
DOCKED: ATOM     38  CG1 VAL M   3      -0.615   1.770  22.939 -0.28 +0.00    +0.012 C 
DOCKED: ATOM     39  CG2 VAL M   3      -1.202  -0.476  21.870 -0.35 +0.00    +0.012 C 
DOCKED: ENDBRANCH  24  37
DOCKED: ENDBRANCH   1  24
DOCKED: TORSDOF 19
DOCKED: TER
DOCKED: ENDMDL
________________________________________________________________________________


	BEGINNING GENETIC ALGORITHM DOCKING 10 of 10
Run: 10 Seed: 2093354335 1900813104 [ Run 10 of 10 GA/GALS ]
Beginning LAMARCKIAN GENETIC ALGORITHM (LGA), with a maximum of 2500000 energy evaluations.

Final-Value: -17.749


	FINAL GENETIC ALGORITHM DOCKED STATE
	_______________________________________________


Detailed state:  trans 1.346 3.340 17.021 quatxyzw 0.464471 -0.723296 0.167526 -0.482747 center 0.843 2.729 18.432 ntor 19 -42.4931 180.0000 -156.7817 -180.0000 92.6879 55.1206 -172.6964 170.6064 -36.2228 40.3406 143.9588 56.0336 -11.2734 131.3468 -157.4335 151.5398 55.9561 176.4313 -27.4963
State:	  1.346   3.340  17.021   0.530 -0.826  0.191 -122.270    -42.49  180.00 -156.78 -180.00   92.69   55.12 -172.70  170.61  -36.22   40.34  143.96   56.03  -11.27  131.35 -157.43  151.54   55.96  176.43  -27.50

DOCKED: MODEL       10
DOCKED: USER    Run = 10
DOCKED: USER    DPF = dock.dpf
DOCKED: USER  
DOCKED: USER    Estimated Free Energy of Binding    =   -2.31 kcal/mol  [=(1)+(2)+(3)-(4)]
DOCKED: USER    Estimated Inhibition Constant, Ki   =   20.38 mM (millimolar)  [Temperature = 298.15 K]
DOCKED: USER    
DOCKED: USER    (1) Final Intermolecular Energy     =   -7.97 kcal/mol
DOCKED: USER        vdW + Hbond + desolv Energy     =   -8.18 kcal/mol
DOCKED: USER        Electrostatic Energy            =   +0.20 kcal/mol
DOCKED: USER    (2) Final Total Internal Energy     =   -9.78 kcal/mol
DOCKED: USER    (3) Torsional Free Energy           =   +5.67 kcal/mol
DOCKED: USER    (4) Unbound System's Energy  [=(2)] =   -9.78 kcal/mol
DOCKED: USER    
DOCKED: USER    
DOCKED: USER    NEWDPF move lig3sm1.pdbqt
DOCKED: USER    NEWDPF about 0.843000 2.729000 18.432000
DOCKED: USER    NEWDPF tran0 1.346132 3.340013 17.020681
DOCKED: USER    NEWDPF quaternion0 0.464471 -0.723296 0.167526 -0.482747
DOCKED: USER    NEWDPF axisangle0 0.530363 -0.825907 0.191292 -122.270068
DOCKED: USER    NEWDPF quat0 0.530363 -0.825907 0.191292 -122.270068
DOCKED: USER    NEWDPF dihe0 -42.49 180.00 -156.78 -180.00 92.69 55.12 -172.70 170.61 -36.22 40.34 143.96 56.03 -11.27 131.35 -157.43 151.54 55.96 176.43 -27.50 
DOCKED: USER  keepresnum = 1 
DOCKED: USER  
DOCKED: REMARK  19 active torsions:
DOCKED: REMARK  status: ('A' for Active; 'I' for Inactive)
DOCKED: REMARK    1  A    between atoms: N_1  and  CA_5 
DOCKED: REMARK    2  A    between atoms: CA_5  and  C_6 
DOCKED: REMARK    3  A    between atoms: CA_5  and  CB_8 
DOCKED: REMARK       I    between atoms: C_6  and  N_11 
DOCKED: REMARK    4  A    between atoms: N_11  and  CA_13 
DOCKED: REMARK    5  A    between atoms: CA_13  and  C_14 
DOCKED: REMARK    6  A    between atoms: CA_13  and  CB_16 
DOCKED: REMARK       I    between atoms: C_14  and  N_19 
DOCKED: REMARK    7  A    between atoms: N_19  and  CA_21 
DOCKED: REMARK    8  A    between atoms: CA_21  and  CB_28 
DOCKED: REMARK    9  A    between atoms: CA_21  and  CH@A_32 
DOCKED: REMARK   10  A    between atoms: CA_21  and  CH@B_33 
DOCKED: REMARK   11  A    between atoms: C@A_22  and  O@A_24 
DOCKED: REMARK   12  A    between atoms: C@A_22  and  CM@A_38 
DOCKED: REMARK   13  A    between atoms: C@B_23  and  O@B_26 
DOCKED: REMARK   14  A    between atoms: C@B_23  and  CM@B_39 
DOCKED: REMARK   15  A    between atoms: CB_28  and  CG_29 
DOCKED: REMARK   16  A    between atoms: CH@A_32  and  OH@A_34 
DOCKED: REMARK   17  A    between atoms: CH@A_32  and  CM@A_38 
DOCKED: REMARK   18  A    between atoms: CH@B_33  and  OH@B_36 
DOCKED: REMARK   19  A    between atoms: CH@B_33  and  CM@B_39 
DOCKED: USER                              x       y       z     vdW  Elec       q    Type
DOCKED: USER                           _______ _______ _______ _____ _____    ______ ____
DOCKED: ROOT
DOCKED: ATOM      1  C   VAL M   3       1.276   3.575  16.793 -0.21 +0.06    +0.241 C 
DOCKED: ATOM      2  O   VAL M   3       0.488   4.255  16.121 -0.17 -0.03    -0.271 OA
DOCKED: ATOM      3  N   STA M   4       1.306   2.239  16.661 -0.09 -0.08    -0.345 N 
DOCKED: ATOM      4  HN  STA M   4       2.003   1.660  17.130 -0.48 +0.00    +0.163 HD
DOCKED: ENDROOT
DOCKED: BRANCH   3   5
DOCKED: ATOM      5  CA  STA M   4       0.273   1.674  15.802 -0.33 +0.03    +0.085 C 
DOCKED: BRANCH   5   6
DOCKED: ATOM      6  CB  STA M   4       0.954   1.075  14.557 -0.34 +0.02    +0.040 C 
DOCKED: BRANCH   6   7
DOCKED: ATOM      7  CG  STA M   4       1.915   2.140  14.032 -0.40 -0.01    -0.020 C 
DOCKED: ATOM      8  CD1 STA M   4       1.220   3.100  13.099 -0.39 +0.00    +0.009 C 
DOCKED: ATOM      9  CD2 STA M   4       3.192   1.605  13.372 -0.53 +0.01    +0.009 C 
DOCKED: ENDBRANCH   6   7
DOCKED: ENDBRANCH   5   6
DOCKED: BRANCH   5  10
DOCKED: ATOM     10  CH ASTA M   4      -0.701   0.670  16.450 -0.26 +0.07    +0.150 C 
DOCKED: BRANCH  10  11
DOCKED: ATOM     11  OH ASTA M   4      -0.373   0.464  17.815 -0.23 -0.14    -0.393 OA
DOCKED: ATOM     12  HH ASTA M   4      -1.159   0.448  18.350 +0.13 +0.07    +0.210 HD
DOCKED: ENDBRANCH  10  11
DOCKED: BRANCH  10  13
DOCKED: ATOM     13  CM ASTA M   4      -2.161   1.087  16.328 -0.42 +0.02    +0.060 C 
DOCKED: BRANCH  13  14
DOCKED: ATOM     14  C  ASTA M   4      -2.439   2.579  16.351 -0.20 +0.02    +0.166 C 
DOCKED: BRANCH  14  15
DOCKED: ATOM     15  O  ASTA M   4      -1.702   3.402  17.227 -0.15 -0.06    -0.401 OA
DOCKED: ATOM     16  H  ASTA M   4      -1.044   3.009  17.789 +0.08 +0.06    +0.209 HD
DOCKED: ENDBRANCH  14  15
DOCKED: ENDBRANCH  13  14
DOCKED: ENDBRANCH  10  13
DOCKED: ENDBRANCH   5  10
DOCKED: BRANCH   5  17
DOCKED: ATOM     17  CH BSTA M   4      -0.537   0.828  16.768 -0.28 +0.06    +0.150 C 
DOCKED: BRANCH  17  18
DOCKED: ATOM     18  OH BSTA M   4      -0.385   1.274  18.102 -0.16 -0.11    -0.393 OA
DOCKED: ATOM     19  HH BSTA M   4      -0.119   2.185  18.137 +0.12 +0.05    +0.210 HD
DOCKED: ENDBRANCH  17  18
DOCKED: BRANCH  17  20
DOCKED: ATOM     20  CM BSTA M   4      -1.969   0.880  16.286 -0.43 +0.02    +0.060 C 
DOCKED: BRANCH  20  21
DOCKED: ATOM     21  C  BSTA M   4      -2.952  -0.243  16.570 -0.47 +0.04    +0.166 C 
DOCKED: BRANCH  21  22
DOCKED: ATOM     22  O  BSTA M   4      -2.688  -0.974  17.729 -0.45 -0.14    -0.401 OA
DOCKED: ATOM     23  H  BSTA M   4      -1.922  -0.690  18.214 +0.12 +0.08    +0.209 HD
DOCKED: ENDBRANCH  21  22
DOCKED: ENDBRANCH  20  21
DOCKED: ENDBRANCH  17  20
DOCKED: ENDBRANCH   5  17
DOCKED: ENDBRANCH   3   5
DOCKED: BRANCH   1  24
DOCKED: ATOM     24  CA  VAL M   3       2.161   4.272  17.825 -0.20 +0.06    +0.180 C 
DOCKED: BRANCH  24  25
DOCKED: ATOM     25  N   VAL M   3       2.086   3.424  18.978 -0.06 -0.08    -0.346 N 
DOCKED: ATOM     26  C   VAL M   2       0.984   3.243  19.689 -0.20 +0.06    +0.249 C 
DOCKED: ATOM     27  O   VAL M   2      -0.043   3.892  19.483 -0.87 -0.11    -0.271 OA
DOCKED: ATOM     28  HN  VAL M   3       2.931   2.932  19.269 -0.01 +0.03    +0.163 HD
DOCKED: BRANCH  26  29
DOCKED: ATOM     29  CA  VAL M   2       1.084   2.252  20.873 -0.15 +0.05    +0.278 C 
DOCKED: BRANCH  29  30
DOCKED: ATOM     30  N   VAL M   2       0.806   0.925  20.332 -0.29 -0.01    -0.066 N 
DOCKED: ATOM     31  HN3 VAL M   2      -0.152   0.818  19.997 +0.16 +0.07    +0.275 HD
DOCKED: ATOM     32  HN2 VAL M   2       1.272   0.746  19.442 -0.05 +0.00    +0.275 HD
DOCKED: ATOM     33  HN1 VAL M   2       1.055   0.255  21.059 +0.10 +0.07    +0.275 HD
DOCKED: ENDBRANCH  29  30
DOCKED: BRANCH  29  34
DOCKED: ATOM     34  CB  VAL M   2       2.251   2.400  21.889 -0.15 +0.00    +0.017 C 
DOCKED: ATOM     35  CG1 VAL M   2       2.653   3.844  22.282 -0.11 +0.00    +0.012 C 
DOCKED: ATOM     36  CG2 VAL M   2       2.134   1.437  23.108 -0.12 +0.00    +0.012 C 
DOCKED: ENDBRANCH  29  34
DOCKED: ENDBRANCH  26  29
DOCKED: ENDBRANCH  24  25
DOCKED: BRANCH  24  37
DOCKED: ATOM     37  CB  VAL M   3       3.685   4.383  17.360 -0.21 +0.00    +0.009 C 
DOCKED: ATOM     38  CG1 VAL M   3       3.822   4.607  15.830 -0.34 +0.00    +0.012 C 
DOCKED: ATOM     39  CG2 VAL M   3       4.413   5.475  18.159 -0.15 +0.00    +0.012 C 
DOCKED: ENDBRANCH  24  37
DOCKED: ENDBRANCH   1  24
DOCKED: TORSDOF 19
DOCKED: TER
DOCKED: ENDMDL
________________________________________________________________________________

DPF> analysis                             # perform a ranked cluster analysis


		CLUSTER ANALYSIS OF CONFORMATIONS
		_________________________________

Number of conformations = 10

RMSD cluster analysis will be performed using the ligand atoms only (39 / 39 total atoms).

Outputting structurally similar clusters, ranked in order of increasing energy.


________________________________________________________________________________

Number of distinct conformational clusters found = 6,  out of 10 runs,
Using an rmsd-tolerance of 2.0 A


	CLUSTERING HISTOGRAM
	____________________

________________________________________________________________________________
     |           |     |           |     |                                    
Clus | Lowest    | Run | Mean      | Num | Histogram                          
-ter | Binding   |     | Binding   | in  |                                    
Rank | Energy    |     | Energy    | Clus|    5    10   15   20   25   30   35
_____|___________|_____|___________|_____|____:____|____:____|____:____|____:___
   1 |     -5.75 |   8 |     -4.25 |   3 |###
   2 |     -5.34 |   6 |     -5.34 |   1 |#
   3 |     -3.98 |   3 |     -3.98 |   1 |#
   4 |     -3.97 |   5 |     -3.14 |   2 |##
   5 |     -3.96 |   4 |     -3.68 |   2 |##
   6 |     -3.32 |   7 |     -3.32 |   1 |#
_____|___________|_____|___________|_____|______________________________________


Number of multi-member conformational clusters found = 3, out of 10 runs.

	RMSD TABLE
	__________

_____________________________________________________________________
     |      |      |           |         |                 |
Rank | Sub- | Run  | Binding   | Cluster | Reference       | Grep
     | Rank |      | Energy    | RMSD    | RMSD            | Pattern
_____|______|______|___________|_________|_________________|___________
   1      1      8       -5.75      0.00      2.09           RANKING
   1      2      1       -3.92      1.95      2.11           RANKING
   1      3      2       -3.08      1.84      1.95           RANKING
   2      1      6       -5.34      0.00      1.65           RANKING
   3      1      3       -3.98      0.00      2.71           RANKING
   4      1      5       -3.97      0.00      2.28           RANKING
   4      2     10       -2.31      1.90      2.05           RANKING
   5      1      4       -3.96      0.00      2.39           RANKING
   5      2      9       -3.41      1.99      1.84           RANKING
   6      1      7       -3.32      0.00      2.03           RANKING
_______________________________________________________________________



	INFORMATION ENTROPY ANALYSIS FOR THIS CLUSTERING
	________________________________________________


Information entropy for this clustering = 0.74  (rmstol = 2.00 Angstrom)

_______________________________________________________________________


	STATISTICAL MECHANICAL ANALYSIS
	_______________________________


Partition function, Q =    10.07            at Temperature, T = 298.15 K
Free energy,        A ~ -1368.14 kcal/mol   at Temperature, T = 298.15 K
Internal energy,    U =    -3.90 kcal/mol   at Temperature, T = 298.15 K
Entropy,            S =     4.58 kcal/mol/K at Temperature, T = 298.15 K

_______________________________________________________________________


	LOWEST ENERGY DOCKED CONFORMATION from EACH CLUSTER
	___________________________________________________



Keeping original residue number (specified in the input PDBQ file) for outputting.

MODEL        8
USER    Run = 8
USER    Cluster Rank = 1
USER    Number of conformations in this cluster = 3
USER  
USER    RMSD from reference structure       = 2.095 A
USER  
USER    Estimated Free Energy of Binding    =   -5.75 kcal/mol  [=(1)+(2)+(3)-(4)]
USER    Estimated Inhibition Constant, Ki   =   61.27 uM (micromolar)  [Temperature = 298.15 K]
USER    
USER    (1) Final Intermolecular Energy     =  -11.41 kcal/mol
USER        vdW + Hbond + desolv Energy     =  -11.27 kcal/mol
USER        Electrostatic Energy            =   -0.14 kcal/mol
USER    (2) Final Total Internal Energy     =   -5.90 kcal/mol
USER    (3) Torsional Free Energy           =   +5.67 kcal/mol
USER    (4) Unbound System's Energy  [=(2)] =   -5.90 kcal/mol
USER    
USER    
USER  
USER    DPF = dock.dpf
USER    NEWDPF move	lig3sm1.pdbqt
USER    NEWDPF about	0.843000 2.729000 18.432000
USER    NEWDPF tran0	2.098279 3.813212 18.127462
USER    NEWDPF axisangle0	-0.445032 0.878376 -0.174364 154.486331
USER    NEWDPF quaternion0	-0.434047 0.856694 -0.170060 0.220814
USER    NEWDPF dihe0	-114.31 175.79 43.57 -169.01 66.02 58.41 -166.66 -145.53 -152.54 -28.82 125.93 145.46 72.59 165.66 -22.70 -68.86 69.75 171.51 16.68 
USER  
USER                              x       y       z    vdW   Elec        q     RMS 
ATOM      1  C   VAL M   3       2.155   4.101  17.966 -0.17 +0.07    +0.241     2.095
ATOM      2  O   VAL M   3       1.822   5.017  17.202 -0.78 -0.13    -0.271     2.095
ATOM      3  N   STA M   4       2.237   2.837  17.518 -0.05 -0.06    -0.345     2.095
ATOM      4  HN  STA M   4       2.595   2.076  18.095 -0.46 -0.02    +0.163     2.095
ATOM      5  CA  STA M   4       1.778   2.630  16.150 -0.25 +0.02    +0.085     2.095
ATOM      6  CB  STA M   4       2.433   1.344  15.610 -0.29 +0.02    +0.040     2.095
ATOM      7  CG  STA M   4       3.299   1.762  14.423 -0.45 -0.01    -0.020     2.095
ATOM      8  CD1 STA M   4       2.761   1.211  13.126 -0.52 +0.01    +0.009     2.095
ATOM      9  CD2 STA M   4       4.791   1.432  14.550 -0.42 +0.01    +0.009     2.095
ATOM     10  CH ASTA M   4       0.255   2.627  15.919 -0.26 +0.03    +0.150     2.095
ATOM     11  OH ASTA M   4      -0.390   3.521  16.812 -0.16 -0.05    -0.393     2.095
ATOM     12  HH ASTA M   4      -0.138   4.418  16.629 -0.47 +0.00    +0.210     2.095
ATOM     13  CM ASTA M   4      -0.135   2.962  14.484 -0.29 +0.00    +0.060     2.095
ATOM     14  C  ASTA M   4       0.483   4.216  13.895 -0.30 +0.01    +0.166     2.095
ATOM     15  O  ASTA M   4       0.690   5.336  14.727 -0.19 -0.04    -0.401     2.095
ATOM     16  H  ASTA M   4       0.385   5.308  15.626 -0.33 +0.01    +0.209     2.095
ATOM     17  CH BSTA M   4       0.273   2.780  16.278 -0.26 +0.03    +0.150     2.095
ATOM     18  OH BSTA M   4      -0.323   3.112  15.038 -0.10 -0.01    -0.393     2.095
ATOM     19  HH BSTA M   4      -0.976   3.795  15.137 -0.43 -0.07    +0.210     2.095
ATOM     20  CM BSTA M   4      -0.240   1.478  16.850 -0.36 +0.02    +0.060     2.095
ATOM     21  C  BSTA M   4      -1.198   0.586  16.081 -0.27 +0.07    +0.166     2.095
ATOM     22  O  BSTA M   4      -1.018   0.588  14.697 -0.66 -0.19    -0.401     2.095
ATOM     23  H  BSTA M   4      -0.222   1.012  14.399 +0.03 +0.07    +0.209     2.095
ATOM     24  CA  VAL M   3       2.400   4.417  19.440 -0.14 +0.05    +0.180     2.095
ATOM     25  N   VAL M   3       1.645   3.421  20.141 -0.07 -0.08    -0.346     2.095
ATOM     26  C   VAL M   2       0.361   3.182  19.926 -0.24 +0.06    +0.249     2.095
ATOM     27  O   VAL M   2      -0.321   3.891  19.184 -0.89 -0.14    -0.271     2.095
ATOM     28  HN  VAL M   3       2.126   2.863  20.847 +0.05 +0.03    +0.163     2.095
ATOM     29  CA  VAL M   2      -0.272   2.033  20.746 -0.22 +0.05    +0.278     2.095
ATOM     30  N   VAL M   2       0.038   2.300  22.147 -0.21 -0.01    -0.066     2.095
ATOM     31  HN3 VAL M   2       0.319   3.265  22.322 -0.34 -0.01    +0.275     2.095
ATOM     32  HN2 VAL M   2      -0.784   2.295  22.750 -0.16 +0.02    +0.275     2.095
ATOM     33  HN1 VAL M   2       0.745   1.619  22.425 +0.12 +0.06    +0.275     2.095
ATOM     34  CB  VAL M   2      -1.708   1.550  20.391 -0.50 +0.00    +0.017     2.095
ATOM     35  CG1 VAL M   2      -1.831   0.532  19.231 -0.51 +0.00    +0.012     2.095
ATOM     36  CG2 VAL M   2      -2.557   1.171  21.641 -0.48 +0.00    +0.012     2.095
ATOM     37  CB  VAL M   3       3.937   4.292  19.854 -0.08 +0.00    +0.009     2.095
ATOM     38  CG1 VAL M   3       4.358   2.822  20.127 -0.09 +0.00    +0.012     2.095
ATOM     39  CG2 VAL M   3       4.835   4.950  18.795 -0.09 +0.00    +0.012     2.095
TER
ENDMDL
MODEL        6
USER    Run = 6
USER    Cluster Rank = 2
USER    Number of conformations in this cluster = 1
USER  
USER    RMSD from reference structure       = 1.647 A
USER  
USER    Estimated Free Energy of Binding    =   -5.34 kcal/mol  [=(1)+(2)+(3)-(4)]
USER    Estimated Inhibition Constant, Ki   =  121.72 uM (micromolar)  [Temperature = 298.15 K]
USER    
USER    (1) Final Intermolecular Energy     =  -11.01 kcal/mol
USER        vdW + Hbond + desolv Energy     =  -10.73 kcal/mol
USER        Electrostatic Energy            =   -0.28 kcal/mol
USER    (2) Final Total Internal Energy     =   -4.09 kcal/mol
USER    (3) Torsional Free Energy           =   +5.67 kcal/mol
USER    (4) Unbound System's Energy  [=(2)] =   -4.09 kcal/mol
USER    
USER    
USER  
USER    DPF = dock.dpf
USER    NEWDPF move	lig3sm1.pdbqt
USER    NEWDPF about	0.843000 2.729000 18.432000
USER    NEWDPF tran0	-1.206124 1.946491 18.491956
USER    NEWDPF axisangle0	-0.183964 -0.084665 -0.979280 150.323108
USER    NEWDPF quaternion0	-0.177829 -0.081841 -0.946623 0.256094
USER    NEWDPF dihe0	-39.99 -159.42 -65.70 -164.49 -10.18 124.84 50.46 -132.33 -13.83 -80.17 -5.83 -9.47 27.62 22.09 50.02 -149.26 -157.53 -65.87 -179.43 
USER  
USER                              x       y       z    vdW   Elec        q     RMS 
ATOM      1  C   VAL M   3      -1.025   1.675  18.419 -0.30 +0.07    +0.241     1.647
ATOM      2  O   VAL M   3      -0.637   0.519  18.643 -0.30 -0.09    -0.271     1.647
ATOM      3  N   STA M   4      -0.778   2.658  19.300 -0.21 -0.11    -0.345     1.647
ATOM      4  HN  STA M   4      -1.001   3.634  19.106 +0.05 +0.09    +0.163     1.647
ATOM      5  CA  STA M   4      -0.168   2.232  20.555 -0.33 +0.02    +0.085     1.647
ATOM      6  CB  STA M   4      -0.800   0.889  20.967 -0.44 +0.01    +0.040     1.647
ATOM      7  CG  STA M   4      -0.348   0.618  22.401 -0.38 -0.01    -0.020     1.647
ATOM      8  CD1 STA M   4      -1.081  -0.557  22.999 -0.31 +0.00    +0.009     1.647
ATOM      9  CD2 STA M   4      -0.426   1.819  23.352 -0.26 +0.00    +0.009     1.647
ATOM     10  CH ASTA M   4       1.371   2.169  20.595 -0.19 +0.03    +0.150     1.647
ATOM     11  OH ASTA M   4       1.816   0.823  20.662 -0.11 -0.07    -0.393     1.647
ATOM     12  HH ASTA M   4       2.581   0.695  20.114 -0.36 -0.01    +0.210     1.647
ATOM     13  CM ASTA M   4       2.031   2.871  19.414 -0.17 +0.01    +0.060     1.647
ATOM     14  C  ASTA M   4       3.548   2.905  19.414 -0.07 +0.03    +0.166     1.647
ATOM     15  O  ASTA M   4       4.259   1.846  20.014 -0.13 -0.08    -0.401     1.647
ATOM     16  H  ASTA M   4       3.826   1.010  20.142 -0.44 +0.04    +0.209     1.647
ATOM     17  CH BSTA M   4       1.316   2.376  20.269 -0.20 +0.03    +0.150     1.647
ATOM     18  OH BSTA M   4       2.026   1.198  20.604 -0.10 -0.06    -0.393     1.647
ATOM     19  HH BSTA M   4       2.394   0.782  19.834 -0.32 -0.04    +0.210     1.647
ATOM     20  CM BSTA M   4       1.436   2.744  18.807 -0.22 +0.01    +0.060     1.647
ATOM     21  C  BSTA M   4       1.386   4.187  18.337 -0.25 +0.06    +0.166     1.647
ATOM     22  O  BSTA M   4       0.228   4.536  17.640 -0.39 -0.17    -0.401     1.647
ATOM     23  H  BSTA M   4      -0.492   3.923  17.730 -0.03 +0.08    +0.209     1.647
ATOM     24  CA  VAL M   3      -1.849   1.949  17.163 -0.32 +0.05    +0.180     1.647
ATOM     25  N   VAL M   3      -0.941   2.634  16.292 -0.12 -0.05    -0.346     1.647
ATOM     26  C   VAL M   2      -0.017   2.024  15.565 -0.23 +0.06    +0.249     1.647
ATOM     27  O   VAL M   2       0.215   0.820  15.677 -0.69 -0.15    -0.271     1.647
ATOM     28  HN  VAL M   3      -1.010   3.649  16.227 -0.48 -0.03    +0.163     1.647
ATOM     29  CA  VAL M   2       0.841   2.926  14.646 -0.17 +0.05    +0.278     1.647
ATOM     30  N   VAL M   2       0.015   4.082  14.306 -0.17 +0.00    -0.066     1.647
ATOM     31  HN3 VAL M   2      -0.985   3.884  14.330 -0.36 -0.05    +0.275     1.647
ATOM     32  HN2 VAL M   2       0.019   4.805  15.026 -0.29 -0.05    +0.275     1.647
ATOM     33  HN1 VAL M   2       0.339   4.415  13.398 +0.17 +0.02    +0.275     1.647
ATOM     34  CB  VAL M   2       2.334   3.170  15.002 -0.32 +0.00    +0.017     1.647
ATOM     35  CG1 VAL M   2       3.375   2.266  14.296 -0.42 +0.01    +0.012     1.647
ATOM     36  CG2 VAL M   2       2.728   4.677  15.011 -0.41 +0.00    +0.012     1.647
ATOM     37  CB  VAL M   3      -2.349   0.613  16.446 -0.51 +0.00    +0.009     1.647
ATOM     38  CG1 VAL M   3      -3.196  -0.284  17.390 -0.52 +0.00    +0.012     1.647
ATOM     39  CG2 VAL M   3      -3.109   0.948  15.153 -0.44 +0.00    +0.012     1.647
TER
ENDMDL
MODEL        3
USER    Run = 3
USER    Cluster Rank = 3
USER    Number of conformations in this cluster = 1
USER  
USER    RMSD from reference structure       = 2.707 A
USER  
USER    Estimated Free Energy of Binding    =   -3.98 kcal/mol  [=(1)+(2)+(3)-(4)]
USER    Estimated Inhibition Constant, Ki   =    1.21 mM (millimolar)  [Temperature = 298.15 K]
USER    
USER    (1) Final Intermolecular Energy     =   -9.65 kcal/mol
USER        vdW + Hbond + desolv Energy     =   -9.60 kcal/mol
USER        Electrostatic Energy            =   -0.05 kcal/mol
USER    (2) Final Total Internal Energy     =   -5.04 kcal/mol
USER    (3) Torsional Free Energy           =   +5.67 kcal/mol
USER    (4) Unbound System's Energy  [=(2)] =   -5.04 kcal/mol
USER    
USER    
USER  
USER    DPF = dock.dpf
USER    NEWDPF move	lig3sm1.pdbqt
USER    NEWDPF about	0.843000 2.729000 18.432000
USER    NEWDPF tran0	2.069013 3.674773 19.293401
USER    NEWDPF axisangle0	-0.815715 0.454754 0.357501 83.631387
USER    NEWDPF quaternion0	-0.543867 0.303201 0.238359 0.745293
USER    NEWDPF dihe0	-117.79 179.83 -173.36 156.66 156.47 -96.05 166.96 179.94 -16.41 11.90 -112.60 153.69 -116.71 180.00 -82.23 -163.11 -162.16 -114.11 16.44 
USER  
USER                              x       y       z    vdW   Elec        q     RMS 
ATOM      1  C   VAL M   3       1.868   3.935  19.357 -0.15 +0.07    +0.241     2.707
ATOM      2  O   VAL M   3       1.101   4.579  20.086 -0.28 -0.08    -0.271     2.707
ATOM      3  N   STA M   4       1.557   2.683  18.980 -0.07 -0.06    -0.345     2.707
ATOM      4  HN  STA M   4       2.119   2.160  18.308 -0.36 -0.01    +0.163     2.707
ATOM      5  CA  STA M   4       0.360   2.126  19.597 -0.31 +0.02    +0.085     2.707
ATOM      6  CB  STA M   4      -0.170   0.998  18.692 -0.39 +0.01    +0.040     2.707
ATOM      7  CG  STA M   4      -0.875   1.676  17.519 -0.41 -0.01    -0.020     2.707
ATOM      8  CD1 STA M   4      -1.308   3.078  17.871 -0.38 +0.00    +0.009     2.707
ATOM      9  CD2 STA M   4      -2.058   0.901  16.925 -0.48 +0.00    +0.009     2.707
ATOM     10  CH ASTA M   4       0.483   1.662  21.062 -0.25 +0.03    +0.150     2.707
ATOM     11  OH ASTA M   4       1.122   2.654  21.850 -0.07 -0.07    -0.393     2.707
ATOM     12  HH ASTA M   4       0.610   3.454  21.863 -0.24 +0.01    +0.210     2.707
ATOM     13  CM ASTA M   4      -0.856   1.291  21.688 -0.41 +0.01    +0.060     2.707
ATOM     14  C  ASTA M   4      -1.506   0.017  21.181 -0.36 +0.05    +0.166     2.707
ATOM     15  O  ASTA M   4      -2.626  -0.502  21.862 -0.21 -0.13    -0.401     2.707
ATOM     16  H  ASTA M   4      -2.954  -0.046  22.628 +0.15 +0.07    +0.209     2.707
ATOM     17  CH BSTA M   4       0.809   1.874  21.025 -0.23 +0.03    +0.150     2.707
ATOM     18  OH BSTA M   4       0.402   2.918  21.890 -0.02 -0.02    -0.393     2.707
ATOM     19  HH BSTA M   4      -0.164   3.538  21.445 -0.46 -0.05    +0.210     2.707
ATOM     20  CM BSTA M   4       0.247   0.527  21.420 -0.34 +0.02    +0.060     2.707
ATOM     21  C  BSTA M   4      -0.883   0.393  22.426 -0.34 +0.05    +0.166     2.707
ATOM     22  O  BSTA M   4      -1.455   1.600  22.829 -0.05 -0.10    -0.401     2.707
ATOM     23  H  BSTA M   4      -0.895   2.360  22.728 -0.24 +0.01    +0.209     2.707
ATOM     24  CA  VAL M   3       3.204   4.556  18.954 -0.11 +0.05    +0.180     2.707
ATOM     25  N   VAL M   3       3.532   3.907  17.718 -0.05 -0.09    -0.346     2.707
ATOM     26  C   VAL M   2       2.947   4.183  16.563 -0.18 +0.08    +0.249     2.707
ATOM     27  O   VAL M   2       1.978   4.940  16.484 -0.60 -0.11    -0.271     2.707
ATOM     28  HN  VAL M   3       4.259   3.191  17.730 +0.04 +0.03    +0.163     2.707
ATOM     29  CA  VAL M   2       3.468   3.413  15.327 -0.18 +0.08    +0.278     2.707
ATOM     30  N   VAL M   2       4.923   3.378  15.440 -0.09 -0.01    -0.066     2.707
ATOM     31  HN3 VAL M   2       5.384   3.014  14.606 -0.35 -0.00    +0.275     2.707
ATOM     32  HN2 VAL M   2       5.351   4.304  15.427 -0.46 -0.02    +0.275     2.707
ATOM     33  HN1 VAL M   2       5.138   2.847  16.283 +0.06 +0.06    +0.275     2.707
ATOM     34  CB  VAL M   2       2.736   2.117  14.876 -0.38 +0.01    +0.017     2.707
ATOM     35  CG1 VAL M   2       1.194   2.196  14.754 -0.35 +0.00    +0.012     2.707
ATOM     36  CG2 VAL M   2       3.417   1.414  13.665 -0.51 +0.01    +0.012     2.707
ATOM     37  CB  VAL M   3       3.104   6.130  18.703 -0.14 +0.00    +0.009     2.707
ATOM     38  CG1 VAL M   3       2.514   6.887  19.923 -0.24 +0.00    +0.012     2.707
ATOM     39  CG2 VAL M   3       4.473   6.697  18.293 -0.13 +0.00    +0.012     2.707
TER
ENDMDL
MODEL        5
USER    Run = 5
USER    Cluster Rank = 4
USER    Number of conformations in this cluster = 2
USER  
USER    RMSD from reference structure       = 2.276 A
USER  
USER    Estimated Free Energy of Binding    =   -3.97 kcal/mol  [=(1)+(2)+(3)-(4)]
USER    Estimated Inhibition Constant, Ki   =    1.24 mM (millimolar)  [Temperature = 298.15 K]
USER    
USER    (1) Final Intermolecular Energy     =   -9.63 kcal/mol
USER        vdW + Hbond + desolv Energy     =   -9.59 kcal/mol
USER        Electrostatic Energy            =   -0.05 kcal/mol
USER    (2) Final Total Internal Energy     =   -7.30 kcal/mol
USER    (3) Torsional Free Energy           =   +5.67 kcal/mol
USER    (4) Unbound System's Energy  [=(2)] =   -7.30 kcal/mol
USER    
USER    
USER  
USER    DPF = dock.dpf
USER    NEWDPF move	lig3sm1.pdbqt
USER    NEWDPF about	0.843000 2.729000 18.432000
USER    NEWDPF tran0	-0.105988 1.127873 18.794825
USER    NEWDPF axisangle0	0.996169 0.086706 -0.011362 173.112941
USER    NEWDPF quaternion0	0.994371 0.086549 -0.011341 0.060065
USER    NEWDPF dihe0	-76.35 170.38 -24.43 -168.05 19.85 138.19 135.70 -173.16 -3.31 -52.71 60.53 106.22 -180.00 149.00 -142.62 164.25 180.00 -132.21 -61.46 
USER  
USER                              x       y       z    vdW   Elec        q     RMS 
ATOM      1  C   VAL M   3      -0.385   0.944  18.798 -0.29 +0.07    +0.241     2.276
ATOM      2  O   VAL M   3      -1.074  -0.017  18.425 -0.37 -0.10    -0.271     2.276
ATOM      3  N   STA M   4       0.014   1.876  17.918 -0.13 -0.09    -0.345     2.276
ATOM      4  HN  STA M   4       0.502   2.725  18.206 +0.08 +0.04    +0.163     2.276
ATOM      5  CA  STA M   4      -0.298   1.591  16.523 -0.34 +0.03    +0.085     2.276
ATOM      6  CB  STA M   4      -1.777   1.944  16.277 -0.38 +0.01    +0.040     2.276
ATOM      7  CG  STA M   4      -2.329   0.873  15.339 -0.44 -0.00    -0.020     2.276
ATOM      8  CD1 STA M   4      -3.573   1.347  14.629 -0.41 +0.00    +0.009     2.276
ATOM      9  CD2 STA M   4      -2.588  -0.495  15.984 -0.53 +0.00    +0.009     2.276
ATOM     10  CH ASTA M   4       0.618   2.229  15.460 -0.27 +0.04    +0.150     2.276
ATOM     11  OH ASTA M   4       1.831   2.676  16.045 -0.08 -0.10    -0.393     2.276
ATOM     12  HH ASTA M   4       2.541   2.078  15.843 +0.08 +0.07    +0.210     2.276
ATOM     13  CM ASTA M   4       0.923   1.296  14.294 -0.35 +0.02    +0.060     2.276
ATOM     14  C  ASTA M   4       2.375   0.891  14.117 -0.39 +0.12    +0.166     2.276
ATOM     15  O  ASTA M   4       3.128   0.521  15.250 -0.63 -0.36    -0.401     2.276
ATOM     16  H  ASTA M   4       2.762   0.662  16.116 -0.36 +0.09    +0.209     2.276
ATOM     17  CH BSTA M   4       0.833   2.281  15.781 -0.26 +0.04    +0.150     2.276
ATOM     18  OH BSTA M   4       2.061   2.153  16.472 -0.10 -0.09    -0.393     2.276
ATOM     19  HH BSTA M   4       2.803   2.233  15.884 +0.08 +0.06    +0.210     2.276
ATOM     20  CM BSTA M   4       0.868   1.678  14.395 -0.36 +0.02    +0.060     2.276
ATOM     21  C  BSTA M   4       2.124   1.702  13.542 -0.34 +0.06    +0.166     2.276
ATOM     22  O  BSTA M   4       3.026   2.719  13.855 -0.14 -0.15    -0.401     2.276
ATOM     23  H  BSTA M   4       2.849   3.173  14.671 +0.12 +0.06    +0.209     2.276
ATOM     24  CA  VAL M   3       0.062   1.013  20.257 -0.30 +0.04    +0.180     2.276
ATOM     25  N   VAL M   3       0.670   2.306  20.375 -0.10 -0.07    -0.346     2.276
ATOM     26  C   VAL M   2       0.047   3.440  20.097 -0.20 +0.05    +0.249     2.276
ATOM     27  O   VAL M   2      -1.077   3.463  19.591 -0.59 -0.11    -0.271     2.276
ATOM     28  HN  VAL M   3       1.638   2.354  20.692 +0.06 +0.03    +0.163     2.276
ATOM     29  CA  VAL M   2       0.850   4.741  20.331 -0.24 +0.07    +0.278     2.276
ATOM     30  N   VAL M   2       0.899   4.947  21.776 -0.14 -0.01    -0.066     2.276
ATOM     31  HN3 VAL M   2       1.848   5.050  22.137 +0.08 +0.06    +0.275     2.276
ATOM     32  HN2 VAL M   2       0.553   5.861  22.065 -0.00 +0.05    +0.275     2.276
ATOM     33  HN1 VAL M   2       0.390   4.171  22.199 -0.40 -0.04    +0.275     2.276
ATOM     34  CB  VAL M   2       2.146   4.991  19.510 -0.24 +0.01    +0.017     2.276
ATOM     35  CG1 VAL M   2       2.013   4.938  17.967 -0.27 +0.01    +0.012     2.276
ATOM     36  CG2 VAL M   2       2.974   6.208  20.018 -0.18 +0.00    +0.012     2.276
ATOM     37  CB  VAL M   3      -1.156   0.915  21.284 -0.49 +0.00    +0.009     2.276
ATOM     38  CG1 VAL M   3      -1.825  -0.486  21.278 -0.39 +0.00    +0.012     2.276
ATOM     39  CG2 VAL M   3      -0.704   1.321  22.696 -0.37 +0.00    +0.012     2.276
TER
ENDMDL
MODEL        4
USER    Run = 4
USER    Cluster Rank = 5
USER    Number of conformations in this cluster = 2
USER  
USER    RMSD from reference structure       = 2.386 A
USER  
USER    Estimated Free Energy of Binding    =   -3.96 kcal/mol  [=(1)+(2)+(3)-(4)]
USER    Estimated Inhibition Constant, Ki   =    1.25 mM (millimolar)  [Temperature = 298.15 K]
USER    
USER    (1) Final Intermolecular Energy     =   -9.63 kcal/mol
USER        vdW + Hbond + desolv Energy     =   -9.80 kcal/mol
USER        Electrostatic Energy            =   +0.17 kcal/mol
USER    (2) Final Total Internal Energy     =   -6.93 kcal/mol
USER    (3) Torsional Free Energy           =   +5.67 kcal/mol
USER    (4) Unbound System's Energy  [=(2)] =   -6.93 kcal/mol
USER    
USER    
USER  
USER    DPF = dock.dpf
USER    NEWDPF move	lig3sm1.pdbqt
USER    NEWDPF about	0.843000 2.729000 18.432000
USER    NEWDPF tran0	-0.979234 1.221991 18.318283
USER    NEWDPF axisangle0	-0.883186 0.435196 0.174892 178.330807
USER    NEWDPF quaternion0	-0.883092 0.435149 0.174873 0.014566
USER    NEWDPF dihe0	179.77 89.40 -119.41 161.83 38.40 180.00 -179.93 76.40 6.54 119.69 153.48 -179.88 -179.95 179.34 -150.45 18.25 -179.76 -98.74 1.37 
USER  
USER                              x       y       z    vdW   Elec        q     RMS 
ATOM      1  C   VAL M   3      -1.247   1.376  18.448 -0.31 +0.07    +0.241     2.386
ATOM      2  O   VAL M   3      -2.469   1.523  18.588 -0.27 -0.09    -0.271     2.386
ATOM      3  N   STA M   4      -0.679   1.518  17.239 -0.15 -0.10    -0.345     2.386
ATOM      4  HN  STA M   4       0.332   1.494  17.104 +0.06 +0.05    +0.163     2.386
ATOM      5  CA  STA M   4      -1.609   1.708  16.132 -0.35 +0.02    +0.085     2.386
ATOM      6  CB  STA M   4      -0.990   2.720  15.149 -0.25 +0.00    +0.040     2.386
ATOM      7  CG  STA M   4       0.524   2.543  15.239 -0.33 -0.00    -0.020     2.386
ATOM      8  CD1 STA M   4       1.241   3.869  15.176 -0.36 +0.00    +0.009     2.386
ATOM      9  CD2 STA M   4       1.135   1.574  14.220 -0.41 +0.00    +0.009     2.386
ATOM     10  CH ASTA M   4      -2.094   0.439  15.404 -0.34 +0.05    +0.150     2.386
ATOM     11  OH ASTA M   4      -2.496  -0.552  16.336 -0.82 -0.14    -0.393     2.386
ATOM     12  HH ASTA M   4      -2.384  -0.240  17.227 +0.14 +0.07    +0.210     2.386
ATOM     13  CM ASTA M   4      -3.225   0.708  14.418 -0.38 +0.00    +0.060     2.386
ATOM     14  C  ASTA M   4      -4.054   1.954  14.670 -0.30 +0.02    +0.166     2.386
ATOM     15  O  ASTA M   4      -3.611   3.190  14.156 -0.16 -0.04    -0.401     2.386
ATOM     16  H  ASTA M   4      -3.049   3.740  14.689 -0.20 -0.00    +0.209     2.386
ATOM     17  CH BSTA M   4      -1.938   0.282  15.726 -0.34 +0.06    +0.150     2.386
ATOM     18  OH BSTA M   4      -1.868  -0.601  16.829 -0.76 -0.20    -0.393     2.386
ATOM     19  HH BSTA M   4      -2.485  -0.359  17.510 +0.14 +0.07    +0.210     2.386
ATOM     20  CM BSTA M   4      -3.308   0.325  15.087 -0.45 +0.01    +0.060     2.386
ATOM     21  C  BSTA M   4      -4.580   0.306  15.916 -0.39 +0.02    +0.166     2.386
ATOM     22  O  BSTA M   4      -4.417   0.689  17.248 -0.18 -0.09    -0.401     2.386
ATOM     23  H  BSTA M   4      -3.522   0.657  17.566 +0.15 +0.06    +0.209     2.386
ATOM     24  CA  VAL M   3      -0.407   0.959  19.653 -0.33 +0.05    +0.180     2.386
ATOM     25  N   VAL M   3       0.781   1.754  19.543 -0.11 -0.06    -0.346     2.386
ATOM     26  C   VAL M   2       0.780   3.077  19.502 -0.21 +0.06    +0.249     2.386
ATOM     27  O   VAL M   2      -0.262   3.730  19.430 -0.86 -0.11    -0.271     2.386
ATOM     28  HN  VAL M   3       1.678   1.272  19.494 -0.27 -0.01    +0.163     2.386
ATOM     29  CA  VAL M   2       2.165   3.763  19.430 -0.11 +0.07    +0.278     2.386
ATOM     30  N   VAL M   2       2.032   4.875  18.491 -0.24 -0.03    -0.066     2.386
ATOM     31  HN3 VAL M   2       2.316   5.771  18.885 +0.09 +0.12    +0.275     2.386
ATOM     32  HN2 VAL M   2       2.714   4.846  17.733 +0.10 +0.11    +0.275     2.386
ATOM     33  HN1 VAL M   2       1.066   4.867  18.165 +0.11 +0.12    +0.275     2.386
ATOM     34  CB  VAL M   2       2.961   4.004  20.743 -0.10 +0.00    +0.017     2.386
ATOM     35  CG1 VAL M   2       2.235   4.791  21.862 -0.17 +0.00    +0.012     2.386
ATOM     36  CG2 VAL M   2       3.699   2.733  21.259 -0.09 +0.00    +0.012     2.386
ATOM     37  CB  VAL M   3      -1.120   1.282  21.046 -0.48 +0.00    +0.009     2.386
ATOM     38  CG1 VAL M   3      -2.225   0.249  21.398 -0.51 +0.00    +0.012     2.386
ATOM     39  CG2 VAL M   3      -0.078   1.401  22.169 -0.35 +0.00    +0.012     2.386
TER
ENDMDL
MODEL        7
USER    Run = 7
USER    Cluster Rank = 6
USER    Number of conformations in this cluster = 1
USER  
USER    RMSD from reference structure       = 2.029 A
USER  
USER    Estimated Free Energy of Binding    =   -3.32 kcal/mol  [=(1)+(2)+(3)-(4)]
USER    Estimated Inhibition Constant, Ki   =    3.68 mM (millimolar)  [Temperature = 298.15 K]
USER    
USER    (1) Final Intermolecular Energy     =   -8.99 kcal/mol
USER        vdW + Hbond + desolv Energy     =   -8.81 kcal/mol
USER        Electrostatic Energy            =   -0.17 kcal/mol
USER    (2) Final Total Internal Energy     =   -6.17 kcal/mol
USER    (3) Torsional Free Energy           =   +5.67 kcal/mol
USER    (4) Unbound System's Energy  [=(2)] =   -6.17 kcal/mol
USER    
USER    
USER  
USER    DPF = dock.dpf
USER    NEWDPF move	lig3sm1.pdbqt
USER    NEWDPF about	0.843000 2.729000 18.432000
USER    NEWDPF tran0	0.445293 2.969769 18.197338
USER    NEWDPF axisangle0	-0.406457 0.847277 -0.341926 -82.624894
USER    NEWDPF quaternion0	-0.268329 0.559343 -0.225728 -0.751121
USER    NEWDPF dihe0	-179.94 138.55 -131.80 -179.86 -74.55 -161.09 152.61 81.88 -7.72 2.74 -64.87 -159.09 -82.16 99.79 -130.62 -161.75 179.99 132.24 -2.31 
USER  
USER                              x       y       z    vdW   Elec        q     RMS 
ATOM      1  C   VAL M   3       0.351   3.263  18.328 -0.26 +0.07    +0.241     2.029
ATOM      2  O   VAL M   3       0.426   4.496  18.428 -0.73 -0.14    -0.271     2.029
ATOM      3  N   STA M   4       1.409   2.492  18.627 -0.06 -0.05    -0.345     2.029
ATOM      4  HN  STA M   4       1.355   1.473  18.644 -0.26 -0.01    +0.163     2.029
ATOM      5  CA  STA M   4       2.642   3.212  18.927 -0.14 +0.02    +0.085     2.029
ATOM      6  CB  STA M   4       3.324   2.525  20.124 -0.10 +0.01    +0.040     2.029
ATOM      7  CG  STA M   4       2.712   3.135  21.383 -0.12 -0.00    -0.020     2.029
ATOM      8  CD1 STA M   4       1.766   2.175  22.060 -0.18 +0.00    +0.009     2.029
ATOM      9  CD2 STA M   4       2.024   4.492  21.187 -0.20 +0.00    +0.009     2.029
ATOM     10  CH ASTA M   4       3.626   3.422  17.760 -0.12 +0.03    +0.150     2.029
ATOM     11  OH ASTA M   4       3.572   2.331  16.855 -0.06 -0.07    -0.393     2.029
ATOM     12  HH ASTA M   4       2.938   1.685  17.145 -0.47 -0.02    +0.210     2.029
ATOM     13  CM ASTA M   4       3.396   4.727  17.008 -0.23 +0.02    +0.060     2.029
ATOM     14  C  ASTA M   4       4.542   5.722  17.020 -0.19 +0.06    +0.166     2.029
ATOM     15  O  ASTA M   4       5.331   5.876  15.862 -0.19 -0.10    -0.401     2.029
ATOM     16  H  ASTA M   4       5.586   5.105  15.369 -0.49 -0.01    +0.209     2.029
ATOM     17  CH BSTA M   4       3.306   3.314  17.565 -0.14 +0.03    +0.150     2.029
ATOM     18  OH BSTA M   4       2.411   3.809  16.587 -0.10 -0.11    -0.393     2.029
ATOM     19  HH BSTA M   4       1.955   4.584  16.891 +0.08 +0.08    +0.210     2.029
ATOM     20  CM BSTA M   4       4.525   4.189  17.748 -0.14 +0.02    +0.060     2.029
ATOM     21  C  BSTA M   4       4.414   5.636  18.197 -0.11 +0.05    +0.166     2.029
ATOM     22  O  BSTA M   4       3.110   6.128  18.270 -0.28 -0.19    -0.401     2.029
ATOM     23  H  BSTA M   4       2.434   5.504  18.033 +0.07 +0.11    +0.209     2.029
ATOM     24  CA  VAL M   3      -0.935   2.639  17.790 -0.33 +0.05    +0.180     2.029
ATOM     25  N   VAL M   3      -0.708   2.533  16.379 -0.12 -0.06    -0.346     2.029
ATOM     26  C   VAL M   2       0.308   1.873  15.844 -0.23 +0.07    +0.249     2.029
ATOM     27  O   VAL M   2       1.214   1.398  16.530 -0.20 -0.08    -0.271     2.029
ATOM     28  HN  VAL M   3      -1.367   2.992  15.750 -0.21 -0.00    +0.163     2.029
ATOM     29  CA  VAL M   2       0.361   1.827  14.299 -0.20 +0.05    +0.278     2.029
ATOM     30  N   VAL M   2      -1.011   1.630  13.840 -0.31 -0.00    -0.066     2.029
ATOM     31  HN3 VAL M   2      -1.090   0.948  13.086 -0.36 -0.07    +0.275     2.029
ATOM     32  HN2 VAL M   2      -1.596   1.140  14.517 +0.15 +0.05    +0.275     2.029
ATOM     33  HN1 VAL M   2      -1.370   2.551  13.588 +0.15 -0.01    +0.275     2.029
ATOM     34  CB  VAL M   2       1.248   2.854  13.539 -0.36 +0.00    +0.017     2.029
ATOM     35  CG1 VAL M   2       1.082   4.343  13.934 -0.43 +0.00    +0.012     2.029
ATOM     36  CG2 VAL M   2       2.735   2.409  13.413 -0.45 +0.00    +0.012     2.029
ATOM     37  CB  VAL M   3      -1.212   1.183  18.383 -0.47 +0.00    +0.009     2.029
ATOM     38  CG1 VAL M   3      -1.438   1.202  19.919 -0.49 +0.00    +0.012     2.029
ATOM     39  CG2 VAL M   3      -2.384   0.516  17.647 -0.53 +0.00    +0.012     2.029
TER
ENDMDL


AVSFLD: # AVS field file
AVSFLD: #
AVSFLD: # Created by AutoDock
AVSFLD: #
AVSFLD: ndim=2           # number of dimensions in the field
AVSFLD: nspace=1         # number of physical coordinates
AVSFLD: veclen=7         # vector size
AVSFLD: dim1=39          # atoms
AVSFLD: dim2=6           # conformations
AVSFLD: data=Real       # data type (byte,integer,Real,double)
AVSFLD: field=uniform    # field coordinate layout
AVSFLD: label= x y z vdW Elec q RMS
AVSFLD: variable 1 file = dock.dlg.pdb filetype = ascii offset = 5 stride = 12
AVSFLD: variable 2 file = dock.dlg.pdb filetype = ascii offset = 6 stride = 12
AVSFLD: variable 3 file = dock.dlg.pdb filetype = ascii offset = 7 stride = 12
AVSFLD: variable 4 file = dock.dlg.pdb filetype = ascii offset = 8 stride = 12
AVSFLD: variable 5 file = dock.dlg.pdb filetype = ascii offset = 9 stride = 12
AVSFLD: variable 6 file = dock.dlg.pdb filetype = ascii offset = 10 stride = 12
AVSFLD: variable 7 file = dock.dlg.pdb filetype = ascii offset = 11 stride = 12
AVSFLD: # end of file

>>> Closing the docking parameter file (DPF)...
This docking finished at:			1:00 08" a.m., 11/25/2025


________________________________________________________________________________

.\autodock4.exe: Successful Completion on "LAPTOP-PFTQOH6G"

Real= 18m 08.05s,  CPU= 41.78s,  System= 2.77s
________________________________________________________________________________

