REMARK  14 active torsions:
REMARK  status: ('A' for Active; 'I' for Inactive)
REMARK    1  A    between atoms: N1_2  and  C31_45 
REMARK    2  A    between atoms: C2_4  and  C3_9 
REMARK    3  A    between atoms: N2_5  and  C4_12 
REMARK       I    between atoms: N2_5  and  C3_9 
REMARK    4  A    between atoms: O2_7  and  C11_25 
REMARK    5  A    between atoms: N3_10  and  C10_24 
REMARK    6  A    between atoms: N4_13  and  C22_36 
REMARK       I    between atoms: N4_13  and  C21_35 
REMARK    7  A    between atoms: O4_15  and  C23_37 
REMARK    8  A    between atoms: C10_24  and  C11_25 
REMARK    9  A    between atoms: C11_25  and  C12_26 
REMARK   10  A    between atoms: C12_26  and  C13_27 
REMARK   11  A    between atoms: C13_27  and  C14_28 
REMARK   12  A    between atoms: C13_27  and  C21_35 
REMARK   13  A    between atoms: C14_28  and  C15_29 
REMARK   14  A    between atoms: C31_45  and  C32_46 
ROOT
HETATM    1  C11 MK1 B 902      28.603 -13.204  -1.640  1.00 25.87     0.147 C 
ENDROOT
BRANCH   1   2
HETATM    2  O2  MK1 B 902      28.207 -14.383  -2.353  1.00 26.04    -0.394 OA
ATOM      3  H2  MK1 B 902      28.379 -15.105  -1.760  1.00  0.00     0.210 HD
ENDBRANCH   1   2
BRANCH   1   4
HETATM    4  C10 MK1 B 902      28.323 -12.032  -2.604  1.00 25.91     0.305 C 
BRANCH   4   5
HETATM    5  N3  MK1 B 902      27.875 -10.829  -1.852  1.00 27.05     0.108 N 
HETATM    6  C2  MK1 B 902      28.498  -9.529  -2.401  1.00 26.64     0.342 C 
HETATM    7  C1  MK1 B 902      27.929  -8.393  -1.544  1.00 29.61     0.318 C 
HETATM    8  N1  MK1 B 902      26.436  -8.312  -1.583  1.00 31.00     0.097 N 
HETATM    9  C9  MK1 B 902      25.892  -9.605  -1.130  1.00 27.88     0.303 C 
HETATM   10  C8  MK1 B 902      26.390 -10.817  -1.915  1.00 27.31     0.303 C 
BRANCH   6  11
HETATM   11  C3  MK1 B 902      30.020  -9.505  -2.295  1.00 28.38     0.253 C 
HETATM   12  O1  MK1 B 902      30.550  -9.894  -1.247  1.00 28.37    -0.271 OA
HETATM   13  N2  MK1 B 902      30.694  -9.048  -3.373  1.00 27.78    -0.351 N 
ATOM     14  H2  MK1 B 902      30.134  -8.750  -4.172  1.00  0.00     0.163 HD
BRANCH  13  15
HETATM   15  C4  MK1 B 902      32.151  -8.938  -3.510  1.00 28.96     0.022 C 
HETATM   16  C5  MK1 B 902      32.365  -8.349  -4.903  1.00 25.79     0.037 C 
HETATM   17  C6  MK1 B 902      32.786 -10.321  -3.448  1.00 26.52     0.037 C 
HETATM   18  C7  MK1 B 902      32.752  -7.974  -2.480  1.00 28.69     0.037 C 
ENDBRANCH  13  15
ENDBRANCH   6  11
BRANCH   8  19
HETATM   19  C31 MK1 B 902      25.949  -7.187  -0.753  1.00 33.52     0.312 C 
BRANCH  19  20
HETATM   20  C32 MK1 B 902      26.392  -5.776  -1.076  1.00 37.83    -0.015 A 
HETATM   21  C33 MK1 B 902      25.980  -5.146  -2.268  1.00 38.47     0.096 A 
HETATM   22  N5  MK1 B 902      26.333  -3.839  -2.670  1.00 41.93    -0.375 N 
HETATM   23  C34 MK1 B 902      27.167  -3.209  -1.721  1.00 41.80     0.087 A 
ATOM     24  H5  MK1 B 902      26.023  -3.404  -3.539  1.00  0.00     0.164 HD
HETATM   25  C35 MK1 B 902      27.626  -3.753  -0.511  1.00 40.13     0.018 A 
HETATM   26  C36 MK1 B 902      27.230  -5.063  -0.181  1.00 38.81     0.011 A 
ENDBRANCH  19  20
ENDBRANCH   8  19
ENDBRANCH   4   5
ENDBRANCH   1   4
BRANCH   1  27
HETATM   27  C12 MK1 B 902      30.094 -13.364  -1.256  1.00 25.95     0.047 C 
BRANCH  27  28
HETATM   28  C13 MK1 B 902      30.380 -14.522  -0.278  1.00 25.07     0.084 C 
BRANCH  28  29
HETATM   29  C14 MK1 B 902      31.903 -14.603   0.004  1.00 26.77     0.052 C 
BRANCH  29  30
HETATM   30  C15 MK1 B 902      32.271 -15.711   0.975  1.00 27.20    -0.057 A 
HETATM   31  C16 MK1 B 902      31.959 -17.073   0.712  1.00 25.34     0.007 A 
HETATM   32  C17 MK1 B 902      32.294 -18.088   1.628  1.00 27.72     0.001 A 
HETATM   33  C18 MK1 B 902      32.953 -17.725   2.830  1.00 29.32     0.000 A 
HETATM   34  C19 MK1 B 902      33.269 -16.376   3.101  1.00 28.64     0.001 A 
HETATM   35  C20 MK1 B 902      32.929 -15.361   2.176  1.00 27.00     0.007 A 
ENDBRANCH  29  30
ENDBRANCH  28  29
BRANCH  28  36
HETATM   36  C21 MK1 B 902      29.630 -14.311   1.047  1.00 25.25     0.222 C 
HETATM   37  O3  MK1 B 902      29.568 -13.230   1.644  1.00 26.56    -0.273 OA
HETATM   38  N4  MK1 B 902      29.060 -15.420   1.520  1.00 25.27    -0.350 N 
ATOM     39  H4  MK1 B 902      28.889 -16.186   0.868  1.00  0.00     0.163 HD
BRANCH  38  40
HETATM   40  C22 MK1 B 902      28.676 -15.600   2.880  1.00 23.88     0.147 C 
HETATM   41  C23 MK1 B 902      28.985 -16.960   3.479  1.00 23.26     0.149 C 
HETATM   42  C24 MK1 B 902      28.011 -17.106   4.618  1.00 22.90     0.073 C 
HETATM   43  C25 MK1 B 902      26.780 -16.338   4.189  1.00 24.80    -0.047 A 
HETATM   44  C26 MK1 B 902      25.422 -16.375   4.614  1.00 23.86     0.008 A 
HETATM   45  C30 MK1 B 902      27.190 -15.431   3.137  1.00 24.42    -0.027 A 
HETATM   46  C27 MK1 B 902      24.497 -15.516   4.004  1.00 24.12     0.001 A 
HETATM   47  C28 MK1 B 902      24.865 -14.625   2.983  1.00 25.01     0.001 A 
HETATM   48  C29 MK1 B 902      26.205 -14.593   2.566  1.00 25.20     0.010 A 
BRANCH  41  49
HETATM   49  O4  MK1 B 902      28.800 -18.005   2.513  1.00 20.27    -0.393 OA
ATOM     50  H4  MK1 B 902      28.993 -18.856   2.888  1.00  0.00     0.210 HD
ENDBRANCH  41  49
ENDBRANCH  38  40
ENDBRANCH  28  36
ENDBRANCH  27  28
ENDBRANCH   1  27
TORSDOF 14
