MODEL 1
REMARK VINA RESULT:     0.000      0.000      0.000
REMARK INTER + INTRA:         -10.470
REMARK INTER:                   0.000
REMARK INTRA:                 -10.470
REMARK UNBOUND:               -10.470
REMARK  26 active torsions:
REMARK  status: ('A' for Active; 'I' for Inactive)
REMARK    1  A    between atoms: N_1  and  CA_5 
REMARK    2  A    between atoms: CA_5  and  C_6 
REMARK       I    between atoms: C_6  and  N_8 
REMARK    3  A    between atoms: N_8  and  CA_10 
REMARK    4  A    between atoms: CA_10  and  CB_13 
REMARK    5  A    between atoms: CA_10  and  C_11 
REMARK       I    between atoms: C_11  and  N_19 
REMARK    6  A    between atoms: CB_13  and  CG_14 
REMARK       I    between atoms: CG_14  and  ND2_15 
REMARK    7  A    between atoms: N_19  and  CA_21 
REMARK    8  A    between atoms: CA_21  and  CB_24 
REMARK    9  A    between atoms: CA_21  and  C_22 
REMARK       I    between atoms: C_22  and  N_31 
REMARK   10  A    between atoms: CB_24  and  CG_25 
REMARK   11  A    between atoms: N_31  and  CA_33 
REMARK   12  A    between atoms: CA_33  and  CB_36 
REMARK   13  A    between atoms: CA_33  and  C_34 
REMARK       I    between atoms: C_34  and  N_40 
REMARK   14  A    between atoms: CB_36  and  CG_37 
REMARK   15  A    between atoms: N_40  and  CA_42 
REMARK   16  A    between atoms: CA_42  and  CB_45 
REMARK   17  A    between atoms: CA_42  and  C_43 
REMARK       I    between atoms: C_43  and  N_52 
REMARK   18  A    between atoms: CB_45  and  CG_46 
REMARK   19  A    between atoms: CG_46  and  CD_47 
REMARK       I    between atoms: CD_47  and  NE2_48 
REMARK   20  A    between atoms: N_52  and  CA_54 
REMARK   21  A    between atoms: CA_54  and  C_55 
REMARK   22  A    between atoms: CA_54  and  CB_57 
REMARK       I    between atoms: C_55  and  N_60 
REMARK   23  A    between atoms: CB_57  and  OG_58 
REMARK   24  A    between atoms: N_60  and  CA_62 
REMARK   25  A    between atoms: CA_62  and  C_63 
REMARK       I    between atoms: C_63  and  N_66 
REMARK   26  A    between atoms: CA_67  and  C_68 
ROOT
ATOM      1  CA  LEU P   6      -5.374  15.010  30.725  1.00 27.45     0.177 C 
ENDROOT
BRANCH   1   2
ATOM      2  N   LEU P   6      -4.323  15.880  31.218  1.00 26.96    -0.346 N 
ATOM      3  C   PHE P   5      -4.217  16.145  32.512  1.00 26.65     0.241 C 
ATOM      4  O   PHE P   5      -5.139  15.960  33.309  1.00 26.89    -0.271 OA
ATOM      5  HN  LEU P   6      -3.659  16.291  30.562  1.00  0.00     0.163 HD
BRANCH   3   6
ATOM      6  CA  PHE P   5      -2.869  16.687  32.984  1.00 26.38     0.180 C 
BRANCH   6   7
ATOM      7  N   PHE P   5      -1.924  15.671  33.444  1.00 25.31    -0.346 N 
ATOM      8  C   ASN P   4      -1.626  15.554  34.734  1.00 24.19     0.241 C 
ATOM      9  O   ASN P   4      -2.215  16.193  35.606  1.00 24.53    -0.271 OA
ATOM     10  HN  PHE P   5      -1.488  15.044  32.767  1.00  0.00     0.163 HD
BRANCH   8  11
ATOM     11  CA  ASN P   4      -0.497  14.587  35.093  1.00 23.29     0.185 C 
BRANCH  11  12
ATOM     12  N   ASN P   4      -0.996  13.216  35.198  1.00 22.91    -0.346 N 
ATOM     13  C   GLY P   3      -1.418  12.710  36.353  1.00 22.73     0.243 C 
ATOM     14  O   GLY P   3      -1.349  13.329  37.415  1.00 23.06    -0.272 OA
ATOM     15  HN  ASN P   4      -1.021  12.632  34.362  1.00  0.00     0.163 HD
BRANCH  13  16
ATOM     16  CA  GLY P   3      -1.990  11.307  36.313  1.00 22.18     0.332 C 
BRANCH  16  17
ATOM     17  N   GLY P   3      -2.660  11.072  35.007  1.00 22.17    -0.071 N 
ATOM     18  HN3 GLY P   3      -2.007  11.131  34.225  1.00  0.00     0.274 HD
ATOM     19  HN2 GLY P   3      -2.941  10.099  34.891  1.00  0.00     0.274 HD
ATOM     20  HN1 GLY P   3      -3.445  11.714  34.900  1.00  0.00     0.274 HD
ENDBRANCH  16  17
ENDBRANCH  13  16
ENDBRANCH  11  12
BRANCH  11  21
ATOM     21  CB  ASN P   4       0.645  14.669  34.070  1.00 22.87     0.137 C 
BRANCH  21  22
ATOM     22  CG  ASN P   4       1.900  13.933  34.530  1.00 22.01     0.217 C 
ATOM     23  OD1 ASN P   4       1.947  13.390  35.637  1.00 20.72    -0.274 OA
ATOM     24  ND2 ASN P   4       2.924  13.913  33.679  1.00 20.11    -0.370 N 
ATOM     25 2HD2 ASN P   4       2.885  14.362  32.763  1.00  0.00     0.159 HD
ATOM     26 1HD2 ASN P   4       3.763  13.421  33.986  1.00  0.00     0.159 HD
ENDBRANCH  21  22
ENDBRANCH  11  21
ENDBRANCH   8  11
ENDBRANCH   6   7
BRANCH   6  27
ATOM     27  CB  PHE P   5      -2.233  17.601  31.926  1.00 26.72     0.073 C 
BRANCH  27  28
ATOM     28  CG  PHE P   5      -0.857  18.075  32.290  1.00 27.87    -0.056 A 
ATOM     29  CD1 PHE P   5       0.265  17.532  31.672  1.00 28.75     0.007 A 
ATOM     30  CE1 PHE P   5       1.544  17.978  31.994  1.00 29.75     0.001 A 
ATOM     31  CZ  PHE P   5       1.716  18.980  32.944  1.00 30.09     0.000 A 
ATOM     32  CE2 PHE P   5       0.598  19.530  33.575  1.00 31.07     0.001 A 
ATOM     33  CD2 PHE P   5      -0.681  19.075  33.243  1.00 29.29     0.007 A 
ENDBRANCH  27  28
ENDBRANCH   6  27
ENDBRANCH   3   6
ENDBRANCH   1   2
BRANCH   1  34
ATOM     34  CB  LEU P   6      -5.603  15.241  29.230  1.00 27.44     0.038 C 
BRANCH  34  35
ATOM     35  CG  LEU P   6      -6.592  14.299  28.531  1.00 27.32    -0.020 C 
ATOM     36  CD2 LEU P   6      -6.258  14.070  27.062  1.00 27.17     0.009 C 
ATOM     37  CD1 LEU P   6      -7.999  14.807  28.695  1.00 26.03     0.009 C 
ENDBRANCH  34  35
ENDBRANCH   1  34
BRANCH   1  38
ATOM     38  C   LEU P   6      -4.939  13.566  30.948  1.00 27.77     0.241 C 
ATOM     39  O   LEU P   6      -5.657  12.778  31.551  1.00 27.73    -0.271 OA
ATOM     40  N   GLN P   7      -3.754  13.225  30.468  1.00 28.31    -0.346 N 
ATOM     41  HN  GLN P   7      -3.237  13.898  29.903  1.00  0.00     0.163 HD
BRANCH  40  42
ATOM     42  CA  GLN P   7      -3.170  11.927  30.721  1.00 29.28     0.177 C 
BRANCH  42  43
ATOM     43  CB  GLN P   7      -3.064  11.138  29.419  1.00 28.99     0.044 C 
BRANCH  43  44
ATOM     44  CG  GLN P   7      -3.453  11.899  28.175  1.00 27.75     0.105 C 
BRANCH  44  45
ATOM     45  CD  GLN P   7      -2.268  12.358  27.386  1.00 26.02     0.215 C 
ATOM     46  OE1 GLN P   7      -1.152  11.893  27.591  1.00 25.45    -0.274 OA
ATOM     47  NE2 GLN P   7      -2.498  13.278  26.473  1.00 25.39    -0.370 N 
ATOM     48 2HE2 GLN P   7      -1.690  13.591  25.936  1.00  0.00     0.159 HD
ATOM     49 1HE2 GLN P   7      -3.426  13.665  26.302  1.00  0.00     0.159 HD
ENDBRANCH  44  45
ENDBRANCH  43  44
ENDBRANCH  42  43
BRANCH  42  50
ATOM     50  C   GLN P   7      -1.808  12.087  31.397  1.00 30.56     0.241 C 
ATOM     51  O   GLN P   7      -1.710  12.432  32.565  1.00 30.78    -0.271 OA
ATOM     52  N   SER P   8      -0.750  11.792  30.660  1.00 32.07    -0.344 N 
ATOM     53  HN  SER P   8      -0.880  11.360  29.745  1.00  0.00     0.163 HD
BRANCH  52  54
ATOM     54  CA  SER P   8       0.585  12.072  31.129  1.00 33.85     0.200 C 
BRANCH  54  55
ATOM     55  C   SER P   8       0.958  13.366  30.428  1.00 35.57     0.243 C 
ATOM     56  O   SER P   8       1.839  14.099  30.874  1.00 36.10    -0.271 OA
ATOM     57  N   ARG P   9       0.311  13.648  29.313  1.00 37.22    -0.346 N 
ATOM     58  HN  ARG P   9      -0.262  12.934  28.863  1.00  0.00     0.163 HD
BRANCH  57  59
ATOM     59  CA  ARG P   9       0.411  14.961  28.730  1.00 38.61     0.172 C 
ATOM     60  CB  ARG P   9       0.830  14.865  27.282  1.00 38.49     0.042 C 
BRANCH  59  61
ATOM     61  C   ARG P   9      -0.971  15.581  28.856  1.00 40.02     0.243 C 
ATOM     62  N   PRO P  10      -1.173  16.732  28.215  1.00 40.73    -0.336 N 
ATOM     63  CD  PRO P  10      -0.191  17.814  28.090  1.00 41.01     0.127 C 
ATOM     64  CA  PRO P  10      -2.481  17.209  27.804  1.00 41.26     0.188 C 
ATOM     65  CG  PRO P  10      -1.033  18.988  28.505  1.00 41.81     0.022 C 
ATOM     66  CB  PRO P  10      -2.442  18.650  28.345  1.00 41.41     0.038 C 
ATOM     67  O   ARG P   9      -1.812  15.090  29.611  1.00 40.72    -0.271 OA
BRANCH  64  68
ATOM     68  C   PRO P  10      -2.600  17.211  26.274  1.00 41.88     0.196 C 
ATOM     69  O   PRO P  10      -2.267  16.228  25.593  1.00 41.83    -0.646 OA
ATOM     70  OXT PRO P  10      -3.039  18.199  25.673  1.00 42.32    -0.646 OA
ENDBRANCH  64  68
ENDBRANCH  59  61
ENDBRANCH  57  59
ENDBRANCH  54  55
BRANCH  54  71
ATOM     71  CB  SER P   8       1.537  10.946  30.729  1.00 33.68     0.199 C 
BRANCH  71  72
ATOM     72  OG  SER P   8       2.420  11.342  29.694  1.00 33.39    -0.398 OA
ATOM     73  HG  SER P   8       3.259  10.900  29.755  1.00  0.00     0.209 HD
ENDBRANCH  71  72
ENDBRANCH  54  71
ENDBRANCH  52  54
ENDBRANCH  42  50
ENDBRANCH  40  42
ENDBRANCH   1  38
TORSDOF 26
                                                                                                                                                                     
ENDMDL
MODEL 2
REMARK VINA RESULT:     0.016      3.876      6.791
REMARK INTER + INTRA:         -10.430
REMARK INTER:                   0.000
REMARK INTRA:                 -10.430
REMARK UNBOUND:               -10.470
REMARK  26 active torsions:
REMARK  status: ('A' for Active; 'I' for Inactive)
REMARK    1  A    between atoms: N_1  and  CA_5 
REMARK    2  A    between atoms: CA_5  and  C_6 
REMARK       I    between atoms: C_6  and  N_8 
REMARK    3  A    between atoms: N_8  and  CA_10 
REMARK    4  A    between atoms: CA_10  and  CB_13 
REMARK    5  A    between atoms: CA_10  and  C_11 
REMARK       I    between atoms: C_11  and  N_19 
REMARK    6  A    between atoms: CB_13  and  CG_14 
REMARK       I    between atoms: CG_14  and  ND2_15 
REMARK    7  A    between atoms: N_19  and  CA_21 
REMARK    8  A    between atoms: CA_21  and  CB_24 
REMARK    9  A    between atoms: CA_21  and  C_22 
REMARK       I    between atoms: C_22  and  N_31 
REMARK   10  A    between atoms: CB_24  and  CG_25 
REMARK   11  A    between atoms: N_31  and  CA_33 
REMARK   12  A    between atoms: CA_33  and  CB_36 
REMARK   13  A    between atoms: CA_33  and  C_34 
REMARK       I    between atoms: C_34  and  N_40 
REMARK   14  A    between atoms: CB_36  and  CG_37 
REMARK   15  A    between atoms: N_40  and  CA_42 
REMARK   16  A    between atoms: CA_42  and  CB_45 
REMARK   17  A    between atoms: CA_42  and  C_43 
REMARK       I    between atoms: C_43  and  N_52 
REMARK   18  A    between atoms: CB_45  and  CG_46 
REMARK   19  A    between atoms: CG_46  and  CD_47 
REMARK       I    between atoms: CD_47  and  NE2_48 
REMARK   20  A    between atoms: N_52  and  CA_54 
REMARK   21  A    between atoms: CA_54  and  C_55 
REMARK   22  A    between atoms: CA_54  and  CB_57 
REMARK       I    between atoms: C_55  and  N_60 
REMARK   23  A    between atoms: CB_57  and  OG_58 
REMARK   24  A    between atoms: N_60  and  CA_62 
REMARK   25  A    between atoms: CA_62  and  C_63 
REMARK       I    between atoms: C_63  and  N_66 
REMARK   26  A    between atoms: CA_67  and  C_68 
ROOT
ATOM      1  CA  LEU P   6      -3.637  12.580  34.428  1.00 27.45     0.177 C 
ENDROOT
BRANCH   1   2
ATOM      2  N   LEU P   6      -4.324  13.594  35.203  1.00 26.96    -0.346 N 
ATOM      3  C   PHE P   5      -5.168  13.252  36.167  1.00 26.65     0.241 C 
ATOM      4  O   PHE P   5      -5.660  12.125  36.253  1.00 26.89    -0.271 OA
ATOM      5  HN  LEU P   6      -4.157  14.581  35.006  1.00  0.00     0.163 HD
BRANCH   3   6
ATOM      6  CA  PHE P   5      -5.497  14.334  37.195  1.00 26.38     0.180 C 
BRANCH   6   7
ATOM      7  N   PHE P   5      -4.657  14.321  38.391  1.00 25.31    -0.346 N 
ATOM      8  C   ASN P   4      -5.069  13.723  39.505  1.00 24.19     0.241 C 
ATOM      9  O   ASN P   4      -6.099  13.050  39.548  1.00 24.53    -0.271 OA
ATOM     10  HN  PHE P   5      -3.744  14.776  38.371  1.00  0.00     0.163 HD
BRANCH   8  11
ATOM     11  CA  ASN P   4      -4.203  13.920  40.750  1.00 23.29     0.185 C 
BRANCH  11  12
ATOM     12  N   ASN P   4      -2.903  13.270  40.590  1.00 22.91    -0.346 N 
ATOM     13  C   GLY P   3      -2.675  12.037  41.035  1.00 22.73     0.243 C 
ATOM     14  O   GLY P   3      -3.512  11.394  41.668  1.00 23.06    -0.272 OA
ATOM     15  HN  ASN P   4      -2.149  13.776  40.125  1.00  0.00     0.163 HD
BRANCH  13  16
ATOM     16  CA  GLY P   3      -1.313  11.444  40.732  1.00 22.18     0.332 C 
BRANCH  16  17
ATOM     17  N   GLY P   3      -0.280  12.512  40.763  1.00 22.17    -0.071 N 
ATOM     18  HN3 GLY P   3      -0.228  12.969  41.673  1.00  0.00     0.274 HD
ATOM     19  HN2 GLY P   3       0.666  12.130  40.735  1.00  0.00     0.274 HD
ATOM     20  HN1 GLY P   3      -0.447  13.178  40.008  1.00  0.00     0.274 HD
ENDBRANCH  16  17
ENDBRANCH  13  16
ENDBRANCH  11  12
BRANCH  11  21
ATOM     21  CB  ASN P   4      -4.025  15.411  41.068  1.00 22.87     0.137 C 
BRANCH  21  22
ATOM     22  CG  ASN P   4      -2.558  15.823  41.151  1.00 22.01     0.217 C 
ATOM     23  OD1 ASN P   4      -1.868  15.519  42.127  1.00 20.72    -0.274 OA
ATOM     24  ND2 ASN P   4      -2.077  16.519  40.122  1.00 20.11    -0.370 N 
ATOM     25 2HD2 ASN P   4      -2.647  16.771  39.315  1.00  0.00     0.159 HD
ATOM     26 1HD2 ASN P   4      -1.096  16.795  40.178  1.00  0.00     0.159 HD
ENDBRANCH  21  22
ENDBRANCH  11  21
ENDBRANCH   8  11
ENDBRANCH   6   7
BRANCH   6  27
ATOM     27  CB  PHE P   5      -5.527  15.726  36.549  1.00 26.72     0.073 C 
BRANCH  27  28
ATOM     28  CG  PHE P   5      -5.510  16.850  37.544  1.00 27.87    -0.056 A 
ATOM     29  CD1 PHE P   5      -6.565  17.021  38.435  1.00 28.75     0.007 A 
ATOM     30  CE1 PHE P   5      -6.549  18.052  39.371  1.00 29.75     0.001 A 
ATOM     31  CZ  PHE P   5      -5.470  18.929  39.425  1.00 30.09     0.000 A 
ATOM     32  CE2 PHE P   5      -4.408  18.771  38.532  1.00 31.07     0.001 A 
ATOM     33  CD2 PHE P   5      -4.434  17.732  37.598  1.00 29.29     0.007 A 
ENDBRANCH  27  28
ENDBRANCH   6  27
ENDBRANCH   3   6
ENDBRANCH   1   2
BRANCH   1  34
ATOM     34  CB  LEU P   6      -3.339  13.095  33.018  1.00 27.44     0.038 C 
BRANCH  34  35
ATOM     35  CG  LEU P   6      -4.292  12.644  31.903  1.00 27.32    -0.020 C 
ATOM     36  CD2 LEU P   6      -5.452  13.607  31.687  1.00 27.17     0.009 C 
ATOM     37  CD1 LEU P   6      -4.788  11.249  32.176  1.00 26.03     0.009 C 
ENDBRANCH  34  35
ENDBRANCH   1  34
BRANCH   1  38
ATOM     38  C   LEU P   6      -2.324  12.254  35.130  1.00 27.77     0.241 C 
ATOM     39  O   LEU P   6      -2.042  11.101  35.434  1.00 27.73    -0.271 OA
ATOM     40  N   GLN P   7      -1.526  13.275  35.394  1.00 28.31    -0.346 N 
ATOM     41  HN  GLN P   7      -1.772  14.199  35.043  1.00  0.00     0.163 HD
BRANCH  40  42
ATOM     42  CA  GLN P   7      -0.314  13.119  36.167  1.00 29.28     0.177 C 
BRANCH  42  43
ATOM     43  CB  GLN P   7       0.904  13.189  35.250  1.00 28.99     0.044 C 
BRANCH  43  44
ATOM     44  CG  GLN P   7       0.597  13.445  33.795  1.00 27.75     0.105 C 
BRANCH  44  45
ATOM     45  CD  GLN P   7       0.578  14.903  33.458  1.00 26.02     0.215 C 
ATOM     46  OE1 GLN P   7       1.336  15.690  34.014  1.00 25.45    -0.274 OA
ATOM     47  NE2 GLN P   7      -0.290  15.276  32.542  1.00 25.39    -0.370 N 
ATOM     48 2HE2 GLN P   7      -0.303  16.270  32.313  1.00  0.00     0.159 HD
ATOM     49 1HE2 GLN P   7      -0.921  14.622  32.080  1.00  0.00     0.159 HD
ENDBRANCH  44  45
ENDBRANCH  43  44
ENDBRANCH  42  43
BRANCH  42  50
ATOM     50  C   GLN P   7      -0.253  14.179  37.268  1.00 30.56     0.241 C 
ATOM     51  O   GLN P   7      -0.887  14.061  38.305  1.00 30.78    -0.271 OA
ATOM     52  N   SER P   8       0.553  15.205  37.049  1.00 32.07    -0.344 N 
ATOM     53  HN  SER P   8       1.181  15.187  36.245  1.00  0.00     0.163 HD
BRANCH  52  54
ATOM     54  CA  SER P   8       0.559  16.346  37.930  1.00 33.85     0.200 C 
BRANCH  54  55
ATOM     55  C   SER P   8      -0.266  17.385  37.192  1.00 35.57     0.243 C 
ATOM     56  O   SER P   8      -0.885  18.255  37.803  1.00 36.10    -0.271 OA
ATOM     57  N   ARG P   9      -0.265  17.322  35.874  1.00 37.22    -0.346 N 
ATOM     58  HN  ARG P   9       0.411  16.726  35.395  1.00  0.00     0.163 HD
BRANCH  57  59
ATOM     59  CA  ARG P   9      -1.213  18.090  35.111  1.00 38.61     0.172 C 
ATOM     60  CB  ARG P   9      -0.535  18.743  33.931  1.00 38.49     0.042 C 
BRANCH  59  61
ATOM     61  C   ARG P   9      -2.276  17.106  34.652  1.00 40.02     0.243 C 
ATOM     62  N   PRO P  10      -3.241  17.587  33.868  1.00 40.73    -0.336 N 
ATOM     63  CD  PRO P  10      -3.863  18.908  34.007  1.00 41.01     0.127 C 
ATOM     64  CA  PRO P  10      -4.022  16.773  32.955  1.00 41.26     0.188 C 
ATOM     65  CG  PRO P  10      -5.316  18.524  33.958  1.00 41.81     0.022 C 
ATOM     66  CB  PRO P  10      -5.448  17.219  33.322  1.00 41.41     0.038 C 
ATOM     67  O   ARG P   9      -2.293  15.953  35.086  1.00 40.72    -0.271 OA
BRANCH  64  68
ATOM     68  C   PRO P  10      -3.702  17.135  31.498  1.00 41.88     0.196 C 
ATOM     69  O   PRO P  10      -2.559  17.004  31.029  1.00 41.83    -0.646 OA
ATOM     70  OXT PRO P  10      -4.582  17.565  30.744  1.00 42.32    -0.646 OA
ENDBRANCH  64  68
ENDBRANCH  59  61
ENDBRANCH  57  59
ENDBRANCH  54  55
BRANCH  54  71
ATOM     71  CB  SER P   8       1.989  16.844  38.147  1.00 33.68     0.199 C 
BRANCH  71  72
ATOM     72  OG  SER P   8       2.187  18.136  37.601  1.00 33.39    -0.398 OA
ATOM     73  HG  SER P   8       2.518  18.748  38.248  1.00  0.00     0.209 HD
ENDBRANCH  71  72
ENDBRANCH  54  71
ENDBRANCH  52  54
ENDBRANCH  42  50
ENDBRANCH  40  42
ENDBRANCH   1  38
TORSDOF 26
                                                                                                                                                                     
ENDMDL
MODEL 3
REMARK VINA RESULT:     0.022      2.323      7.405
REMARK INTER + INTRA:         -10.415
REMARK INTER:                   0.000
REMARK INTRA:                 -10.415
REMARK UNBOUND:               -10.470
REMARK  26 active torsions:
REMARK  status: ('A' for Active; 'I' for Inactive)
REMARK    1  A    between atoms: N_1  and  CA_5 
REMARK    2  A    between atoms: CA_5  and  C_6 
REMARK       I    between atoms: C_6  and  N_8 
REMARK    3  A    between atoms: N_8  and  CA_10 
REMARK    4  A    between atoms: CA_10  and  CB_13 
REMARK    5  A    between atoms: CA_10  and  C_11 
REMARK       I    between atoms: C_11  and  N_19 
REMARK    6  A    between atoms: CB_13  and  CG_14 
REMARK       I    between atoms: CG_14  and  ND2_15 
REMARK    7  A    between atoms: N_19  and  CA_21 
REMARK    8  A    between atoms: CA_21  and  CB_24 
REMARK    9  A    between atoms: CA_21  and  C_22 
REMARK       I    between atoms: C_22  and  N_31 
REMARK   10  A    between atoms: CB_24  and  CG_25 
REMARK   11  A    between atoms: N_31  and  CA_33 
REMARK   12  A    between atoms: CA_33  and  CB_36 
REMARK   13  A    between atoms: CA_33  and  C_34 
REMARK       I    between atoms: C_34  and  N_40 
REMARK   14  A    between atoms: CB_36  and  CG_37 
REMARK   15  A    between atoms: N_40  and  CA_42 
REMARK   16  A    between atoms: CA_42  and  CB_45 
REMARK   17  A    between atoms: CA_42  and  C_43 
REMARK       I    between atoms: C_43  and  N_52 
REMARK   18  A    between atoms: CB_45  and  CG_46 
REMARK   19  A    between atoms: CG_46  and  CD_47 
REMARK       I    between atoms: CD_47  and  NE2_48 
REMARK   20  A    between atoms: N_52  and  CA_54 
REMARK   21  A    between atoms: CA_54  and  C_55 
REMARK   22  A    between atoms: CA_54  and  CB_57 
REMARK       I    between atoms: C_55  and  N_60 
REMARK   23  A    between atoms: CB_57  and  OG_58 
REMARK   24  A    between atoms: N_60  and  CA_62 
REMARK   25  A    between atoms: CA_62  and  C_63 
REMARK       I    between atoms: C_63  and  N_66 
REMARK   26  A    between atoms: CA_67  and  C_68 
ROOT
ATOM      1  CA  LEU P   6      -0.153  14.656  34.965  1.00 27.45     0.177 C 
ENDROOT
BRANCH   1   2
ATOM      2  N   LEU P   6       0.186  15.316  33.720  1.00 26.96    -0.346 N 
ATOM      3  C   PHE P   5       0.808  14.655  32.752  1.00 26.65     0.241 C 
ATOM      4  O   PHE P   5       1.407  13.595  32.946  1.00 26.89    -0.271 OA
ATOM      5  HN  LEU P   6      -0.056  16.297  33.586  1.00  0.00     0.163 HD
BRANCH   3   6
ATOM      6  CA  PHE P   5       0.732  15.271  31.356  1.00 26.38     0.180 C 
BRANCH   6   7
ATOM      7  N   PHE P   5      -0.387  14.806  30.538  1.00 25.31    -0.346 N 
ATOM      8  C   ASN P   4      -0.191  13.949  29.540  1.00 24.19     0.241 C 
ATOM      9  O   ASN P   4       0.899  13.413  29.339  1.00 24.53    -0.271 OA
ATOM     10  HN  PHE P   5      -1.330  15.142  30.735  1.00  0.00     0.163 HD
BRANCH   8  11
ATOM     11  CA  ASN P   4      -1.389  13.665  28.634  1.00 23.29     0.185 C 
BRANCH  11  12
ATOM     12  N   ASN P   4      -2.370  12.820  29.314  1.00 22.91    -0.346 N 
ATOM     13  C   GLY P   3      -2.473  11.519  29.058  1.00 22.73     0.243 C 
ATOM     14  O   GLY P   3      -1.807  10.958  28.187  1.00 23.06    -0.272 OA
ATOM     15  HN  ASN P   4      -2.992  13.240  30.005  1.00  0.00     0.163 HD
BRANCH  13  16
ATOM     16  CA  GLY P   3      -3.470  10.737  29.890  1.00 22.18     0.332 C 
BRANCH  16  17
ATOM     17  N   GLY P   3      -4.774  11.450  29.917  1.00 22.17    -0.071 N 
ATOM     18  HN3 GLY P   3      -5.509  10.922  29.447  1.00  0.00     0.274 HD
ATOM     19  HN2 GLY P   3      -5.180  11.468  30.852  1.00  0.00     0.274 HD
ATOM     20  HN1 GLY P   3      -4.665  12.387  29.528  1.00  0.00     0.274 HD
ENDBRANCH  16  17
ENDBRANCH  13  16
ENDBRANCH  11  12
BRANCH  11  21
ATOM     21  CB  ASN P   4      -2.041  14.970  28.156  1.00 22.87     0.137 C 
BRANCH  21  22
ATOM     22  CG  ASN P   4      -3.337  14.732  27.386  1.00 22.01     0.217 C 
ATOM     23  OD1 ASN P   4      -3.437  13.798  26.587  1.00 20.72    -0.274 OA
ATOM     24  ND2 ASN P   4      -4.336  15.579  27.626  1.00 20.11    -0.370 N 
ATOM     25 2HD2 ASN P   4      -4.253  16.352  28.288  1.00  0.00     0.159 HD
ATOM     26 1HD2 ASN P   4      -5.202  15.421  27.112  1.00  0.00     0.159 HD
ENDBRANCH  21  22
ENDBRANCH  11  21
ENDBRANCH   8  11
ENDBRANCH   6   7
BRANCH   6  27
ATOM     27  CB  PHE P   5       0.777  16.804  31.419  1.00 26.72     0.073 C 
BRANCH  27  28
ATOM     28  CG  PHE P   5       0.561  17.466  30.089  1.00 27.87    -0.056 A 
ATOM     29  CD1 PHE P   5      -0.643  18.103  29.804  1.00 28.75     0.007 A 
ATOM     30  CE1 PHE P   5      -0.845  18.733  28.578  1.00 29.75     0.001 A 
ATOM     31  CZ  PHE P   5       0.162  18.732  27.619  1.00 30.09     0.000 A 
ATOM     32  CE2 PHE P   5       1.374  18.092  27.891  1.00 31.07     0.001 A 
ATOM     33  CD2 PHE P   5       1.566  17.465  29.125  1.00 29.29     0.007 A 
ENDBRANCH  27  28
ENDBRANCH   6  27
ENDBRANCH   3   6
ENDBRANCH   1   2
BRANCH   1  34
ATOM     34  CB  LEU P   6      -0.342  15.684  36.082  1.00 27.44     0.038 C 
BRANCH  34  35
ATOM     35  CG  LEU P   6       0.860  15.931  37.003  1.00 27.32    -0.020 C 
ATOM     36  CD2 LEU P   6       1.762  17.057  36.515  1.00 27.17     0.009 C 
ATOM     37  CD1 LEU P   6       1.638  14.657  37.195  1.00 26.03     0.009 C 
ENDBRANCH  34  35
ENDBRANCH   1  34
BRANCH   1  38
ATOM     38  C   LEU P   6      -1.458  13.894  34.760  1.00 27.77     0.241 C 
ATOM     39  O   LEU P   6      -1.478  12.669  34.757  1.00 27.73    -0.271 OA
ATOM     40  N   GLN P   7      -2.545  14.624  34.577  1.00 28.31    -0.346 N 
ATOM     41  HN  GLN P   7      -2.483  15.637  34.672  1.00  0.00     0.163 HD
BRANCH  40  42
ATOM     42  CA  GLN P   7      -3.820  14.028  34.245  1.00 29.28     0.177 C 
BRANCH  42  43
ATOM     43  CB  GLN P   7      -4.911  14.587  35.155  1.00 28.99     0.044 C 
BRANCH  43  44
ATOM     44  CG  GLN P   7      -4.458  15.659  36.115  1.00 27.75     0.105 C 
BRANCH  44  45
ATOM     45  CD  GLN P   7      -4.785  17.038  35.634  1.00 26.02     0.215 C 
ATOM     46  OE1 GLN P   7      -5.654  17.224  34.790  1.00 25.45    -0.274 OA
ATOM     47  NE2 GLN P   7      -4.090  18.020  36.169  1.00 25.39    -0.370 N 
ATOM     48 2HE2 GLN P   7      -4.312  18.959  35.841  1.00  0.00     0.159 HD
ATOM     49 1HE2 GLN P   7      -3.367  17.865  36.871  1.00  0.00     0.159 HD
ENDBRANCH  44  45
ENDBRANCH  43  44
ENDBRANCH  42  43
BRANCH  42  50
ATOM     50  C   GLN P   7      -4.141  14.264  32.768  1.00 30.56     0.241 C 
ATOM     51  O   GLN P   7      -3.643  13.578  31.888  1.00 30.78    -0.271 OA
ATOM     52  N   SER P   8      -5.016  15.220  32.504  1.00 32.07    -0.344 N 
ATOM     53  HN  SER P   8      -5.525  15.661  33.271  1.00  0.00     0.163 HD
BRANCH  52  54
ATOM     54  CA  SER P   8      -5.262  15.649  31.150  1.00 33.85     0.200 C 
BRANCH  54  55
ATOM     55  C   SER P   8      -4.540  16.980  31.048  1.00 35.57     0.243 C 
ATOM     56  O   SER P   8      -4.100  17.384  29.972  1.00 36.10    -0.271 OA
ATOM     57  N   ARG P   9      -4.430  17.686  32.157  1.00 37.22    -0.346 N 
ATOM     58  HN  ARG P   9      -4.975  17.427  32.981  1.00  0.00     0.163 HD
BRANCH  57  59
ATOM     59  CA  ARG P   9      -3.545  18.821  32.210  1.00 38.61     0.172 C 
ATOM     60  CB  ARG P   9      -4.235  19.998  32.855  1.00 38.49     0.042 C 
BRANCH  59  61
ATOM     61  C   ARG P   9      -2.345  18.377  33.030  1.00 40.02     0.243 C 
ATOM     62  N   PRO P  10      -1.465  19.320  33.364  1.00 40.73    -0.336 N 
ATOM     63  CD  PRO P  10      -1.051  20.433  32.503  1.00 41.01     0.127 C 
ATOM     64  CA  PRO P  10      -0.570  19.224  34.502  1.00 41.26     0.188 C 
ATOM     65  CG  PRO P  10       0.444  20.325  32.629  1.00 41.81     0.022 C 
ATOM     66  CB  PRO P  10       0.773  19.587  33.842  1.00 41.41     0.038 C 
ATOM     67  O   ARG P   9      -2.153  17.183  33.266  1.00 40.72    -0.271 OA
BRANCH  64  68
ATOM     68  C   PRO P  10      -0.941  20.259  35.572  1.00 41.88     0.196 C 
ATOM     69  O   PRO P  10      -0.087  20.998  36.090  1.00 41.83    -0.646 OA
ATOM     70  OXT PRO P  10      -2.112  20.391  35.948  1.00 42.32    -0.646 OA
ENDBRANCH  64  68
ENDBRANCH  59  61
ENDBRANCH  57  59
ENDBRANCH  54  55
BRANCH  54  71
ATOM     71  CB  SER P   8      -6.762  15.828  30.912  1.00 33.68     0.199 C 
BRANCH  71  72
ATOM     72  OG  SER P   8      -7.097  17.177  30.639  1.00 33.39    -0.398 OA
ATOM     73  HG  SER P   8      -7.984  17.383  30.908  1.00  0.00     0.209 HD
ENDBRANCH  71  72
ENDBRANCH  54  71
ENDBRANCH  52  54
ENDBRANCH  42  50
ENDBRANCH  40  42
ENDBRANCH   1  38
TORSDOF 26
                                                                                                                                                                     
ENDMDL
MODEL 4
REMARK VINA RESULT:     0.068      6.358     11.037
REMARK INTER + INTRA:         -10.303
REMARK INTER:                   0.000
REMARK INTRA:                 -10.303
REMARK UNBOUND:               -10.470
REMARK  26 active torsions:
REMARK  status: ('A' for Active; 'I' for Inactive)
REMARK    1  A    between atoms: N_1  and  CA_5 
REMARK    2  A    between atoms: CA_5  and  C_6 
REMARK       I    between atoms: C_6  and  N_8 
REMARK    3  A    between atoms: N_8  and  CA_10 
REMARK    4  A    between atoms: CA_10  and  CB_13 
REMARK    5  A    between atoms: CA_10  and  C_11 
REMARK       I    between atoms: C_11  and  N_19 
REMARK    6  A    between atoms: CB_13  and  CG_14 
REMARK       I    between atoms: CG_14  and  ND2_15 
REMARK    7  A    between atoms: N_19  and  CA_21 
REMARK    8  A    between atoms: CA_21  and  CB_24 
REMARK    9  A    between atoms: CA_21  and  C_22 
REMARK       I    between atoms: C_22  and  N_31 
REMARK   10  A    between atoms: CB_24  and  CG_25 
REMARK   11  A    between atoms: N_31  and  CA_33 
REMARK   12  A    between atoms: CA_33  and  CB_36 
REMARK   13  A    between atoms: CA_33  and  C_34 
REMARK       I    between atoms: C_34  and  N_40 
REMARK   14  A    between atoms: CB_36  and  CG_37 
REMARK   15  A    between atoms: N_40  and  CA_42 
REMARK   16  A    between atoms: CA_42  and  CB_45 
REMARK   17  A    between atoms: CA_42  and  C_43 
REMARK       I    between atoms: C_43  and  N_52 
REMARK   18  A    between atoms: CB_45  and  CG_46 
REMARK   19  A    between atoms: CG_46  and  CD_47 
REMARK       I    between atoms: CD_47  and  NE2_48 
REMARK   20  A    between atoms: N_52  and  CA_54 
REMARK   21  A    between atoms: CA_54  and  C_55 
REMARK   22  A    between atoms: CA_54  and  CB_57 
REMARK       I    between atoms: C_55  and  N_60 
REMARK   23  A    between atoms: CB_57  and  OG_58 
REMARK   24  A    between atoms: N_60  and  CA_62 
REMARK   25  A    between atoms: CA_62  and  C_63 
REMARK       I    between atoms: C_63  and  N_66 
REMARK   26  A    between atoms: CA_67  and  C_68 
ROOT
ATOM      1  CA  LEU P   6      -3.601  15.392  39.066  1.00 27.45     0.177 C 
ENDROOT
BRANCH   1   2
ATOM      2  N   LEU P   6      -4.307  16.098  38.014  1.00 26.96    -0.346 N 
ATOM      3  C   PHE P   5      -5.286  15.507  37.344  1.00 26.65     0.241 C 
ATOM      4  O   PHE P   5      -5.442  14.284  37.330  1.00 26.89    -0.271 OA
ATOM      5  HN  LEU P   6      -4.047  17.058  37.788  1.00  0.00     0.163 HD
BRANCH   3   6
ATOM      6  CA  PHE P   5      -6.241  16.429  36.587  1.00 26.38     0.180 C 
BRANCH   6   7
ATOM      7  N   PHE P   5      -5.949  17.856  36.717  1.00 25.31    -0.346 N 
ATOM      8  C   ASN P   4      -6.886  18.708  37.120  1.00 24.19     0.241 C 
ATOM      9  O   ASN P   4      -7.987  18.333  37.523  1.00 24.53    -0.271 OA
ATOM     10  HN  PHE P   5      -5.015  18.202  36.495  1.00  0.00     0.163 HD
BRANCH   8  11
ATOM     11  CA  ASN P   4      -6.538  20.196  37.050  1.00 23.29     0.185 C 
BRANCH  11  12
ATOM     12  N   ASN P   4      -6.915  20.880  38.285  1.00 22.91    -0.346 N 
ATOM     13  C   GLY P   3      -7.709  21.947  38.282  1.00 22.73     0.243 C 
ATOM     14  O   GLY P   3      -8.117  22.469  37.245  1.00 23.06    -0.272 OA
ATOM     15  HN  ASN P   4      -6.559  20.529  39.175  1.00  0.00     0.163 HD
BRANCH  13  16
ATOM     16  CA  GLY P   3      -8.093  22.514  39.635  1.00 22.18     0.332 C 
BRANCH  16  17
ATOM     17  N   GLY P   3      -8.338  21.406  40.595  1.00 22.17    -0.071 N 
ATOM     18  HN3 GLY P   3      -7.907  20.532  40.291  1.00  0.00     0.274 HD
ATOM     19  HN2 GLY P   3      -7.819  21.532  41.464  1.00  0.00     0.274 HD
ATOM     20  HN1 GLY P   3      -9.340  21.302  40.758  1.00  0.00     0.274 HD
ENDBRANCH  16  17
ENDBRANCH  13  16
ENDBRANCH  11  12
BRANCH  11  21
ATOM     21  CB  ASN P   4      -5.046  20.399  36.753  1.00 22.87     0.137 C 
BRANCH  21  22
ATOM     22  CG  ASN P   4      -4.796  21.491  35.717  1.00 22.01     0.217 C 
ATOM     23  OD1 ASN P   4      -4.895  21.255  34.511  1.00 20.72    -0.274 OA
ATOM     24  ND2 ASN P   4      -4.470  22.694  36.187  1.00 20.11    -0.370 N 
ATOM     25 2HD2 ASN P   4      -4.389  22.889  37.185  1.00  0.00     0.159 HD
ATOM     26 1HD2 ASN P   4      -4.303  23.424  35.495  1.00  0.00     0.159 HD
ENDBRANCH  21  22
ENDBRANCH  11  21
ENDBRANCH   8  11
ENDBRANCH   6   7
BRANCH   6  27
ATOM     27  CB  PHE P   5      -6.365  16.017  35.114  1.00 26.72     0.073 C 
BRANCH  27  28
ATOM     28  CG  PHE P   5      -5.206  16.456  34.267  1.00 27.87    -0.056 A 
ATOM     29  CD1 PHE P   5      -5.220  17.697  33.638  1.00 28.75     0.007 A 
ATOM     30  CE1 PHE P   5      -4.141  18.117  32.864  1.00 29.75     0.001 A 
ATOM     31  CZ  PHE P   5      -3.030  17.295  32.711  1.00 30.09     0.000 A 
ATOM     32  CE2 PHE P   5      -3.005  16.045  33.333  1.00 31.07     0.001 A 
ATOM     33  CD2 PHE P   5      -4.093  15.634  34.109  1.00 29.29     0.007 A 
ENDBRANCH  27  28
ENDBRANCH   6  27
ENDBRANCH   3   6
ENDBRANCH   1   2
BRANCH   1  34
ATOM     34  CB  LEU P   6      -2.089  15.562  38.904  1.00 27.44     0.038 C 
BRANCH  34  35
ATOM     35  CG  LEU P   6      -1.363  14.506  38.061  1.00 27.32    -0.020 C 
ATOM     36  CD2 LEU P   6      -1.220  14.908  36.598  1.00 27.17     0.009 C 
ATOM     37  CD1 LEU P   6      -2.049  13.173  38.193  1.00 26.03     0.009 C 
ENDBRANCH  34  35
ENDBRANCH   1  34
BRANCH   1  38
ATOM     38  C   LEU P   6      -4.031  15.982  40.405  1.00 27.77     0.241 C 
ATOM     39  O   LEU P   6      -4.605  15.295  41.241  1.00 27.73    -0.271 OA
ATOM     40  N   GLN P   7      -3.759  17.262  40.601  1.00 28.31    -0.346 N 
ATOM     41  HN  GLN P   7      -3.205  17.762  39.907  1.00  0.00     0.163 HD
BRANCH  40  42
ATOM     42  CA  GLN P   7      -4.224  17.972  41.771  1.00 29.28     0.177 C 
BRANCH  42  43
ATOM     43  CB  GLN P   7      -3.051  18.276  42.699  1.00 28.99     0.044 C 
BRANCH  43  44
ATOM     44  CG  GLN P   7      -1.692  17.909  42.156  1.00 27.75     0.105 C 
BRANCH  44  45
ATOM     45  CD  GLN P   7      -0.880  19.108  41.779  1.00 26.02     0.215 C 
ATOM     46  OE1 GLN P   7      -1.149  20.219  42.222  1.00 25.45    -0.274 OA
ATOM     47  NE2 GLN P   7       0.125  18.894  40.956  1.00 25.39    -0.370 N 
ATOM     48 2HE2 GLN P   7       0.678  19.711  40.699  1.00  0.00     0.159 HD
ATOM     49 1HE2 GLN P   7       0.349  17.970  40.587  1.00  0.00     0.159 HD
ENDBRANCH  44  45
ENDBRANCH  43  44
ENDBRANCH  42  43
BRANCH  42  50
ATOM     50  C   GLN P   7      -4.958  19.247  41.353  1.00 30.56     0.241 C 
ATOM     51  O   GLN P   7      -6.023  19.205  40.754  1.00 30.78    -0.271 OA
ATOM     52  N   SER P   8      -4.398  20.390  41.712  1.00 32.07    -0.344 N 
ATOM     53  HN  SER P   8      -3.597  20.380  42.344  1.00  0.00     0.163 HD
BRANCH  52  54
ATOM     54  CA  SER P   8      -4.902  21.650  41.226  1.00 33.85     0.200 C 
BRANCH  54  55
ATOM     55  C   SER P   8      -3.999  21.980  40.051  1.00 35.57     0.243 C 
ATOM     56  O   SER P   8      -4.384  22.707  39.138  1.00 36.10    -0.271 OA
ATOM     57  N   ARG P   9      -2.782  21.469  40.072  1.00 37.22    -0.346 N 
ATOM     58  HN  ARG P   9      -2.425  21.043  40.928  1.00  0.00     0.163 HD
BRANCH  57  59
ATOM     59  CA  ARG P   9      -1.958  21.510  38.892  1.00 38.61     0.172 C 
ATOM     60  CB  ARG P   9      -0.593  22.064  39.222  1.00 38.49     0.042 C 
BRANCH  59  61
ATOM     61  C   ARG P   9      -1.859  20.075  38.401  1.00 40.02     0.243 C 
ATOM     62  N   PRO P  10      -1.151  19.869  37.291  1.00 40.73    -0.336 N 
ATOM     63  CD  PRO P  10      -1.128  20.760  36.126  1.00 41.01     0.127 C 
ATOM     64  CA  PRO P  10      -0.537  18.600  36.947  1.00 41.26     0.188 C 
ATOM     65  CG  PRO P  10      -1.371  19.765  35.024  1.00 41.81     0.022 C 
ATOM     66  CB  PRO P  10      -1.021  18.431  35.496  1.00 41.41     0.038 C 
ATOM     67  O   ARG P   9      -2.502  19.179  38.949  1.00 40.72    -0.271 OA
BRANCH  64  68
ATOM     68  C   PRO P  10       0.993  18.708  36.995  1.00 41.88     0.196 C 
ATOM     69  O   PRO P  10       1.700  18.398  36.022  1.00 41.83    -0.646 OA
ATOM     70  OXT PRO P  10       1.568  19.116  38.011  1.00 42.32    -0.646 OA
ENDBRANCH  64  68
ENDBRANCH  59  61
ENDBRANCH  57  59
ENDBRANCH  54  55
BRANCH  54  71
ATOM     71  CB  SER P   8      -4.792  22.723  42.310  1.00 33.68     0.199 C 
BRANCH  71  72
ATOM     72  OG  SER P   8      -3.857  23.730  41.965  1.00 33.39    -0.398 OA
ATOM     73  HG  SER P   8      -3.515  24.174  42.731  1.00  0.00     0.209 HD
ENDBRANCH  71  72
ENDBRANCH  54  71
ENDBRANCH  52  54
ENDBRANCH  42  50
ENDBRANCH  40  42
ENDBRANCH   1  38
TORSDOF 26
                                                                                                                                                                     
ENDMDL
MODEL 5
REMARK VINA RESULT:     0.092      3.843      9.012
REMARK INTER + INTRA:         -10.245
REMARK INTER:                   0.000
REMARK INTRA:                 -10.245
REMARK UNBOUND:               -10.470
REMARK  26 active torsions:
REMARK  status: ('A' for Active; 'I' for Inactive)
REMARK    1  A    between atoms: N_1  and  CA_5 
REMARK    2  A    between atoms: CA_5  and  C_6 
REMARK       I    between atoms: C_6  and  N_8 
REMARK    3  A    between atoms: N_8  and  CA_10 
REMARK    4  A    between atoms: CA_10  and  CB_13 
REMARK    5  A    between atoms: CA_10  and  C_11 
REMARK       I    between atoms: C_11  and  N_19 
REMARK    6  A    between atoms: CB_13  and  CG_14 
REMARK       I    between atoms: CG_14  and  ND2_15 
REMARK    7  A    between atoms: N_19  and  CA_21 
REMARK    8  A    between atoms: CA_21  and  CB_24 
REMARK    9  A    between atoms: CA_21  and  C_22 
REMARK       I    between atoms: C_22  and  N_31 
REMARK   10  A    between atoms: CB_24  and  CG_25 
REMARK   11  A    between atoms: N_31  and  CA_33 
REMARK   12  A    between atoms: CA_33  and  CB_36 
REMARK   13  A    between atoms: CA_33  and  C_34 
REMARK       I    between atoms: C_34  and  N_40 
REMARK   14  A    between atoms: CB_36  and  CG_37 
REMARK   15  A    between atoms: N_40  and  CA_42 
REMARK   16  A    between atoms: CA_42  and  CB_45 
REMARK   17  A    between atoms: CA_42  and  C_43 
REMARK       I    between atoms: C_43  and  N_52 
REMARK   18  A    between atoms: CB_45  and  CG_46 
REMARK   19  A    between atoms: CG_46  and  CD_47 
REMARK       I    between atoms: CD_47  and  NE2_48 
REMARK   20  A    between atoms: N_52  and  CA_54 
REMARK   21  A    between atoms: CA_54  and  C_55 
REMARK   22  A    between atoms: CA_54  and  CB_57 
REMARK       I    between atoms: C_55  and  N_60 
REMARK   23  A    between atoms: CB_57  and  OG_58 
REMARK   24  A    between atoms: N_60  and  CA_62 
REMARK   25  A    between atoms: CA_62  and  C_63 
REMARK       I    between atoms: C_63  and  N_66 
REMARK   26  A    between atoms: CA_67  and  C_68 
ROOT
ATOM      1  CA  LEU P   6      -2.060  14.268  37.614  1.00 27.45     0.177 C 
ENDROOT
BRANCH   1   2
ATOM      2  N   LEU P   6      -1.890  14.891  36.316  1.00 26.96    -0.346 N 
ATOM      3  C   PHE P   5      -1.744  14.150  35.226  1.00 26.65     0.241 C 
ATOM      4  O   PHE P   5      -1.426  12.960  35.265  1.00 26.89    -0.271 OA
ATOM      5  HN  LEU P   6      -1.882  15.908  36.241  1.00  0.00     0.163 HD
BRANCH   3   6
ATOM      6  CA  PHE P   5      -2.009  14.849  33.893  1.00 26.38     0.180 C 
BRANCH   6   7
ATOM      7  N   PHE P   5      -3.404  14.837  33.458  1.00 25.31    -0.346 N 
ATOM      8  C   ASN P   4      -3.823  13.971  32.540  1.00 24.19     0.241 C 
ATOM      9  O   ASN P   4      -3.105  13.068  32.112  1.00 24.53    -0.271 OA
ATOM     10  HN  PHE P   5      -4.065  15.500  33.864  1.00  0.00     0.163 HD
BRANCH   8  11
ATOM     11  CA  ASN P   4      -5.250  14.157  32.023  1.00 23.29     0.185 C 
BRANCH  11  12
ATOM     12  N   ASN P   4      -6.210  13.453  32.873  1.00 22.91    -0.346 N 
ATOM     13  C   GLY P   3      -6.637  12.227  32.583  1.00 22.73     0.243 C 
ATOM     14  O   GLY P   3      -6.313  11.637  31.552  1.00 23.06    -0.272 OA
ATOM     15  HN  ASN P   4      -6.561  13.915  33.712  1.00  0.00     0.163 HD
BRANCH  13  16
ATOM     16  CA  GLY P   3      -7.565  11.574  33.588  1.00 22.18     0.332 C 
BRANCH  16  17
ATOM     17  N   GLY P   3      -8.854  12.313  33.640  1.00 22.17    -0.071 N 
ATOM     18  HN3 GLY P   3      -8.729  13.313  33.482  1.00  0.00     0.274 HD
ATOM     19  HN2 GLY P   3      -9.445  12.108  32.835  1.00  0.00     0.274 HD
ATOM     20  HN1 GLY P   3      -9.328  12.121  34.523  1.00  0.00     0.274 HD
ENDBRANCH  16  17
ENDBRANCH  13  16
ENDBRANCH  11  12
BRANCH  11  21
ATOM     21  CB  ASN P   4      -5.610  15.645  31.920  1.00 22.87     0.137 C 
BRANCH  21  22
ATOM     22  CG  ASN P   4      -7.020  15.873  31.378  1.00 22.01     0.217 C 
ATOM     23  OD1 ASN P   4      -7.587  15.009  30.705  1.00 20.72    -0.274 OA
ATOM     24  ND2 ASN P   4      -7.589  17.040  31.673  1.00 20.11    -0.370 N 
ATOM     25 2HD2 ASN P   4      -7.119  17.754  32.230  1.00  0.00     0.159 HD
ATOM     26 1HD2 ASN P   4      -8.530  17.192  31.311  1.00  0.00     0.159 HD
ENDBRANCH  21  22
ENDBRANCH  11  21
ENDBRANCH   8  11
ENDBRANCH   6   7
BRANCH   6  27
ATOM     27  CB  PHE P   5      -1.435  16.274  33.886  1.00 26.72     0.073 C 
BRANCH  27  28
ATOM     28  CG  PHE P   5      -1.792  17.059  32.658  1.00 27.87    -0.056 A 
ATOM     29  CD1 PHE P   5      -1.133  16.829  31.455  1.00 28.75     0.007 A 
ATOM     30  CE1 PHE P   5      -1.470  17.543  30.308  1.00 29.75     0.001 A 
ATOM     31  CZ  PHE P   5      -2.477  18.502  30.353  1.00 30.09     0.000 A 
ATOM     32  CE2 PHE P   5      -3.142  18.747  31.556  1.00 31.07     0.001 A 
ATOM     33  CD2 PHE P   5      -2.797  18.023  32.701  1.00 29.29     0.007 A 
ENDBRANCH  27  28
ENDBRANCH   6  27
ENDBRANCH   3   6
ENDBRANCH   1   2
BRANCH   1  34
ATOM     34  CB  LEU P   6      -1.627  15.224  38.728  1.00 27.44     0.038 C 
BRANCH  34  35
ATOM     35  CG  LEU P   6      -1.087  14.584  40.014  1.00 27.32    -0.020 C 
ATOM     36  CD2 LEU P   6      -0.580  13.163  39.804  1.00 27.17     0.009 C 
ATOM     37  CD1 LEU P   6      -2.130  14.634  41.098  1.00 26.03     0.009 C 
ENDBRANCH  34  35
ENDBRANCH   1  34
BRANCH   1  38
ATOM     38  C   LEU P   6      -3.537  13.931  37.790  1.00 27.77     0.241 C 
ATOM     39  O   LEU P   6      -3.916  12.768  37.847  1.00 27.73    -0.271 OA
ATOM     40  N   GLN P   7      -4.371  14.955  37.865  1.00 28.31    -0.346 N 
ATOM     41  HN  GLN P   7      -3.992  15.901  37.896  1.00  0.00     0.163 HD
BRANCH  40  42
ATOM     42  CA  GLN P   7      -5.805  14.773  37.903  1.00 29.28     0.177 C 
BRANCH  42  43
ATOM     43  CB  GLN P   7      -6.402  15.564  39.064  1.00 28.99     0.044 C 
BRANCH  43  44
ATOM     44  CG  GLN P   7      -5.407  16.351  39.882  1.00 27.75     0.105 C 
BRANCH  44  45
ATOM     45  CD  GLN P   7      -5.260  17.762  39.408  1.00 26.02     0.215 C 
ATOM     46  OE1 GLN P   7      -6.199  18.357  38.891  1.00 25.45    -0.274 OA
ATOM     47  NE2 GLN P   7      -4.077  18.313  39.582  1.00 25.39    -0.370 N 
ATOM     48 2HE2 GLN P   7      -3.977  19.275  39.259  1.00  0.00     0.159 HD
ATOM     49 1HE2 GLN P   7      -3.296  17.819  40.013  1.00  0.00     0.159 HD
ENDBRANCH  44  45
ENDBRANCH  43  44
ENDBRANCH  42  43
BRANCH  42  50
ATOM     50  C   GLN P   7      -6.422  15.183  36.565  1.00 30.56     0.241 C 
ATOM     51  O   GLN P   7      -6.499  14.401  35.630  1.00 30.78    -0.271 OA
ATOM     52  N   SER P   8      -6.903  16.414  36.494  1.00 32.07    -0.344 N 
ATOM     53  HN  SER P   8      -6.961  16.980  37.341  1.00  0.00     0.163 HD
BRANCH  52  54
ATOM     54  CA  SER P   8      -7.345  16.967  35.238  1.00 33.85     0.200 C 
BRANCH  54  55
ATOM     55  C   SER P   8      -6.359  18.087  34.961  1.00 35.57     0.243 C 
ATOM     56  O   SER P   8      -6.214  18.540  33.827  1.00 36.10    -0.271 OA
ATOM     57  N   ARG P   9      -5.689  18.562  35.995  1.00 37.22    -0.346 N 
ATOM     58  HN  ARG P   9      -5.973  18.312  36.942  1.00  0.00     0.163 HD
BRANCH  57  59
ATOM     59  CA  ARG P   9      -4.559  19.430  35.789  1.00 38.61     0.172 C 
ATOM     60  CB  ARG P   9      -4.719  20.702  36.587  1.00 38.49     0.042 C 
BRANCH  59  61
ATOM     61  C   ARG P   9      -3.341  18.648  36.252  1.00 40.02     0.243 C 
ATOM     62  N   PRO P  10      -2.178  19.299  36.263  1.00 40.73    -0.336 N 
ATOM     63  CD  PRO P  10      -1.746  20.276  35.258  1.00 41.01     0.127 C 
ATOM     64  CA  PRO P  10      -1.051  18.926  37.098  1.00 41.26     0.188 C 
ATOM     65  CG  PRO P  10      -0.370  19.753  34.952  1.00 41.81     0.022 C 
ATOM     66  CB  PRO P  10       0.085  18.920  36.059  1.00 41.41     0.038 C 
ATOM     67  O   ARG P   9      -3.423  17.441  36.488  1.00 40.72    -0.271 OA
BRANCH  64  68
ATOM     68  C   PRO P  10      -0.794  19.994  38.169  1.00 41.88     0.196 C 
ATOM     69  O   PRO P  10       0.322  20.519  38.313  1.00 41.83    -0.646 OA
ATOM     70  OXT PRO P  10      -1.701  20.369  38.922  1.00 42.32    -0.646 OA
ENDBRANCH  64  68
ENDBRANCH  59  61
ENDBRANCH  57  59
ENDBRANCH  54  55
BRANCH  54  71
ATOM     71  CB  SER P   8      -8.766  17.518  35.370  1.00 33.68     0.199 C 
BRANCH  71  72
ATOM     72  OG  SER P   8      -9.207  18.134  34.173  1.00 33.39    -0.398 OA
ATOM     73  HG  SER P   8      -9.785  17.568  33.675  1.00  0.00     0.209 HD
ENDBRANCH  71  72
ENDBRANCH  54  71
ENDBRANCH  52  54
ENDBRANCH  42  50
ENDBRANCH  40  42
ENDBRANCH   1  38
TORSDOF 26
                                                                                                                                                                     
ENDMDL
MODEL 6
REMARK VINA RESULT:     0.125      3.047      5.252
REMARK INTER + INTRA:         -10.162
REMARK INTER:                   0.000
REMARK INTRA:                 -10.162
REMARK UNBOUND:               -10.470
REMARK  26 active torsions:
REMARK  status: ('A' for Active; 'I' for Inactive)
REMARK    1  A    between atoms: N_1  and  CA_5 
REMARK    2  A    between atoms: CA_5  and  C_6 
REMARK       I    between atoms: C_6  and  N_8 
REMARK    3  A    between atoms: N_8  and  CA_10 
REMARK    4  A    between atoms: CA_10  and  CB_13 
REMARK    5  A    between atoms: CA_10  and  C_11 
REMARK       I    between atoms: C_11  and  N_19 
REMARK    6  A    between atoms: CB_13  and  CG_14 
REMARK       I    between atoms: CG_14  and  ND2_15 
REMARK    7  A    between atoms: N_19  and  CA_21 
REMARK    8  A    between atoms: CA_21  and  CB_24 
REMARK    9  A    between atoms: CA_21  and  C_22 
REMARK       I    between atoms: C_22  and  N_31 
REMARK   10  A    between atoms: CB_24  and  CG_25 
REMARK   11  A    between atoms: N_31  and  CA_33 
REMARK   12  A    between atoms: CA_33  and  CB_36 
REMARK   13  A    between atoms: CA_33  and  C_34 
REMARK       I    between atoms: C_34  and  N_40 
REMARK   14  A    between atoms: CB_36  and  CG_37 
REMARK   15  A    between atoms: N_40  and  CA_42 
REMARK   16  A    between atoms: CA_42  and  CB_45 
REMARK   17  A    between atoms: CA_42  and  C_43 
REMARK       I    between atoms: C_43  and  N_52 
REMARK   18  A    between atoms: CB_45  and  CG_46 
REMARK   19  A    between atoms: CG_46  and  CD_47 
REMARK       I    between atoms: CD_47  and  NE2_48 
REMARK   20  A    between atoms: N_52  and  CA_54 
REMARK   21  A    between atoms: CA_54  and  C_55 
REMARK   22  A    between atoms: CA_54  and  CB_57 
REMARK       I    between atoms: C_55  and  N_60 
REMARK   23  A    between atoms: CB_57  and  OG_58 
REMARK   24  A    between atoms: N_60  and  CA_62 
REMARK   25  A    between atoms: CA_62  and  C_63 
REMARK       I    between atoms: C_63  and  N_66 
REMARK   26  A    between atoms: CA_67  and  C_68 
ROOT
ATOM      1  CA  LEU P   6      -3.418  13.577  32.827  1.00 27.45     0.177 C 
ENDROOT
BRANCH   1   2
ATOM      2  N   LEU P   6      -3.483  14.845  33.528  1.00 26.96    -0.346 N 
ATOM      3  C   PHE P   5      -4.605  15.232  34.120  1.00 26.65     0.241 C 
ATOM      4  O   PHE P   5      -5.704  14.738  33.857  1.00 26.89    -0.271 OA
ATOM      5  HN  LEU P   6      -2.659  15.444  33.566  1.00  0.00     0.163 HD
BRANCH   3   6
ATOM      6  CA  PHE P   5      -4.469  16.327  35.176  1.00 26.38     0.180 C 
BRANCH   6   7
ATOM      7  N   PHE P   5      -4.100  15.854  36.510  1.00 25.31    -0.346 N 
ATOM      8  C   ASN P   4      -5.019  15.717  37.461  1.00 24.19     0.241 C 
ATOM      9  O   ASN P   4      -6.222  15.851  37.238  1.00 24.53    -0.271 OA
ATOM     10  HN  PHE P   5      -3.127  15.627  36.713  1.00  0.00     0.163 HD
BRANCH   8  11
ATOM     11  CA  ASN P   4      -4.509  15.391  38.865  1.00 23.29     0.185 C 
BRANCH  11  12
ATOM     12  N   ASN P   4      -3.970  14.033  38.924  1.00 22.91    -0.346 N 
ATOM     13  C   GLY P   3      -4.710  13.002  39.323  1.00 22.73     0.243 C 
ATOM     14  O   GLY P   3      -5.863  13.130  39.735  1.00 23.06    -0.272 OA
ATOM     15  HN  ASN P   4      -3.001  13.872  38.652  1.00  0.00     0.163 HD
BRANCH  13  16
ATOM     16  CA  GLY P   3      -4.061  11.634  39.258  1.00 22.18     0.332 C 
BRANCH  16  17
ATOM     17  N   GLY P   3      -2.590  11.779  39.102  1.00 22.17    -0.071 N 
ATOM     18  HN3 GLY P   3      -2.170  12.289  39.880  1.00  0.00     0.274 HD
ATOM     19  HN2 GLY P   3      -2.102  10.892  39.227  1.00  0.00     0.274 HD
ATOM     20  HN1 GLY P   3      -2.377  12.211  38.202  1.00  0.00     0.274 HD
ENDBRANCH  16  17
ENDBRANCH  13  16
ENDBRANCH  11  12
BRANCH  11  21
ATOM     21  CB  ASN P   4      -3.455  16.411  39.319  1.00 22.87     0.137 C 
BRANCH  21  22
ATOM     22  CG  ASN P   4      -2.131  15.755  39.704  1.00 22.01     0.217 C 
ATOM     23  OD1 ASN P   4      -2.006  15.162  40.778  1.00 20.72    -0.274 OA
ATOM     24  ND2 ASN P   4      -1.137  15.861  38.824  1.00 20.11    -0.370 N 
ATOM     25 2HD2 ASN P   4      -1.241  16.351  37.935  1.00  0.00     0.159 HD
ATOM     26 1HD2 ASN P   4      -0.253  15.423  39.081  1.00  0.00     0.159 HD
ENDBRANCH  21  22
ENDBRANCH  11  21
ENDBRANCH   8  11
ENDBRANCH   6   7
BRANCH   6  27
ATOM     27  CB  PHE P   5      -3.531  17.446  34.702  1.00 26.72     0.073 C 
BRANCH  27  28
ATOM     28  CG  PHE P   5      -3.017  18.311  35.816  1.00 27.87    -0.056 A 
ATOM     29  CD1 PHE P   5      -3.881  19.138  36.526  1.00 28.75     0.007 A 
ATOM     30  CE1 PHE P   5      -3.414  19.931  37.571  1.00 29.75     0.001 A 
ATOM     31  CZ  PHE P   5      -2.067  19.906  37.918  1.00 30.09     0.000 A 
ATOM     32  CE2 PHE P   5      -1.188  19.084  37.209  1.00 31.07     0.001 A 
ATOM     33  CD2 PHE P   5      -1.668  18.291  36.164  1.00 29.29     0.007 A 
ENDBRANCH  27  28
ENDBRANCH   6  27
ENDBRANCH   3   6
ENDBRANCH   1   2
BRANCH   1  34
ATOM     34  CB  LEU P   6      -2.692  13.742  31.490  1.00 27.44     0.038 C 
BRANCH  34  35
ATOM     35  CG  LEU P   6      -3.269  12.975  30.293  1.00 27.32    -0.020 C 
ATOM     36  CD2 LEU P   6      -4.743  12.630  30.463  1.00 27.17     0.009 C 
ATOM     37  CD1 LEU P   6      -2.450  11.741  30.022  1.00 26.03     0.009 C 
ENDBRANCH  34  35
ENDBRANCH   1  34
BRANCH   1  38
ATOM     38  C   LEU P   6      -2.646  12.592  33.698  1.00 27.77     0.241 C 
ATOM     39  O   LEU P   6      -3.184  11.582  34.135  1.00 27.73    -0.271 OA
ATOM     40  N   GLN P   7      -1.385  12.895  33.957  1.00 28.31    -0.346 N 
ATOM     41  HN  GLN P   7      -0.966  13.703  33.498  1.00  0.00     0.163 HD
BRANCH  40  42
ATOM     42  CA  GLN P   7      -0.582  12.113  34.871  1.00 29.28     0.177 C 
BRANCH  42  43
ATOM     43  CB  GLN P   7       0.659  11.584  34.157  1.00 28.99     0.044 C 
BRANCH  43  44
ATOM     44  CG  GLN P   7       0.811  12.028  32.722  1.00 27.75     0.105 C 
BRANCH  44  45
ATOM     45  CD  GLN P   7       1.688  13.232  32.582  1.00 26.02     0.215 C 
ATOM     46  OE1 GLN P   7       2.593  13.452  33.379  1.00 25.45    -0.274 OA
ATOM     47  NE2 GLN P   7       1.429  14.024  31.563  1.00 25.39    -0.370 N 
ATOM     48 2HE2 GLN P   7       2.027  14.844  31.468  1.00  0.00     0.159 HD
ATOM     49 1HE2 GLN P   7       0.677  13.842  30.900  1.00  0.00     0.159 HD
ENDBRANCH  44  45
ENDBRANCH  43  44
ENDBRANCH  42  43
BRANCH  42  50
ATOM     50  C   GLN P   7      -0.214  12.953  36.095  1.00 30.56     0.241 C 
ATOM     51  O   GLN P   7      -1.027  13.193  36.975  1.00 30.78    -0.271 OA
ATOM     52  N   SER P   8       1.041  13.367  36.166  1.00 32.07    -0.344 N 
ATOM     53  HN  SER P   8       1.724  13.015  35.495  1.00  0.00     0.163 HD
BRANCH  52  54
ATOM     54  CA  SER P   8       1.458  14.307  37.176  1.00 33.85     0.200 C 
BRANCH  54  55
ATOM     55  C   SER P   8       1.502  15.637  36.447  1.00 35.57     0.243 C 
ATOM     56  O   SER P   8       1.427  16.701  37.060  1.00 36.10    -0.271 OA
ATOM     57  N   ARG P   9       1.648  15.594  35.136  1.00 37.22    -0.346 N 
ATOM     58  HN  ARG P   9       1.909  14.718  34.682  1.00  0.00     0.163 HD
BRANCH  57  59
ATOM     59  CA  ARG P   9       1.439  16.779  34.344  1.00 38.61     0.172 C 
ATOM     60  CB  ARG P   9       2.625  17.027  33.443  1.00 38.49     0.042 C 
BRANCH  59  61
ATOM     61  C   ARG P   9       0.182  16.521  33.530  1.00 40.02     0.243 C 
ATOM     62  N   PRO P  10      -0.148  17.444  32.627  1.00 40.73    -0.336 N 
ATOM     63  CD  PRO P  10      -0.001  18.893  32.806  1.00 41.01     0.127 C 
ATOM     64  CA  PRO P  10      -0.969  17.177  31.460  1.00 41.26     0.188 C 
ATOM     65  CG  PRO P  10      -1.370  19.353  32.385  1.00 41.81     0.022 C 
ATOM     66  CB  PRO P  10      -1.991  18.324  31.561  1.00 41.41     0.038 C 
ATOM     67  O   ARG P   9      -0.546  15.561  33.787  1.00 40.72    -0.271 OA
BRANCH  64  68
ATOM     68  C   PRO P  10      -0.141  17.306  30.175  1.00 41.88     0.196 C 
ATOM     69  O   PRO P  10       0.960  16.746  30.050  1.00 41.83    -0.646 OA
ATOM     70  OXT PRO P  10      -0.554  17.971  29.218  1.00 42.32    -0.646 OA
ENDBRANCH  64  68
ENDBRANCH  59  61
ENDBRANCH  57  59
ENDBRANCH  54  55
BRANCH  54  71
ATOM     71  CB  SER P   8       2.842  13.936  37.710  1.00 33.68     0.199 C 
BRANCH  71  72
ATOM     72  OG  SER P   8       3.846  14.811  37.227  1.00 33.39    -0.398 OA
ATOM     73  HG  SER P   8       4.401  14.391  36.581  1.00  0.00     0.209 HD
ENDBRANCH  71  72
ENDBRANCH  54  71
ENDBRANCH  52  54
ENDBRANCH  42  50
ENDBRANCH  40  42
ENDBRANCH   1  38
TORSDOF 26
                                                                                                                                                                     
ENDMDL
MODEL 7
REMARK VINA RESULT:     0.145      3.390      8.460
REMARK INTER + INTRA:         -10.113
REMARK INTER:                   0.000
REMARK INTRA:                 -10.113
REMARK UNBOUND:               -10.470
REMARK  26 active torsions:
REMARK  status: ('A' for Active; 'I' for Inactive)
REMARK    1  A    between atoms: N_1  and  CA_5 
REMARK    2  A    between atoms: CA_5  and  C_6 
REMARK       I    between atoms: C_6  and  N_8 
REMARK    3  A    between atoms: N_8  and  CA_10 
REMARK    4  A    between atoms: CA_10  and  CB_13 
REMARK    5  A    between atoms: CA_10  and  C_11 
REMARK       I    between atoms: C_11  and  N_19 
REMARK    6  A    between atoms: CB_13  and  CG_14 
REMARK       I    between atoms: CG_14  and  ND2_15 
REMARK    7  A    between atoms: N_19  and  CA_21 
REMARK    8  A    between atoms: CA_21  and  CB_24 
REMARK    9  A    between atoms: CA_21  and  C_22 
REMARK       I    between atoms: C_22  and  N_31 
REMARK   10  A    between atoms: CB_24  and  CG_25 
REMARK   11  A    between atoms: N_31  and  CA_33 
REMARK   12  A    between atoms: CA_33  and  CB_36 
REMARK   13  A    between atoms: CA_33  and  C_34 
REMARK       I    between atoms: C_34  and  N_40 
REMARK   14  A    between atoms: CB_36  and  CG_37 
REMARK   15  A    between atoms: N_40  and  CA_42 
REMARK   16  A    between atoms: CA_42  and  CB_45 
REMARK   17  A    between atoms: CA_42  and  C_43 
REMARK       I    between atoms: C_43  and  N_52 
REMARK   18  A    between atoms: CB_45  and  CG_46 
REMARK   19  A    between atoms: CG_46  and  CD_47 
REMARK       I    between atoms: CD_47  and  NE2_48 
REMARK   20  A    between atoms: N_52  and  CA_54 
REMARK   21  A    between atoms: CA_54  and  C_55 
REMARK   22  A    between atoms: CA_54  and  CB_57 
REMARK       I    between atoms: C_55  and  N_60 
REMARK   23  A    between atoms: CB_57  and  OG_58 
REMARK   24  A    between atoms: N_60  and  CA_62 
REMARK   25  A    between atoms: CA_62  and  C_63 
REMARK       I    between atoms: C_63  and  N_66 
REMARK   26  A    between atoms: CA_67  and  C_68 
ROOT
ATOM      1  CA  LEU P   6      -5.570  17.058  34.179  1.00 27.45     0.177 C 
ENDROOT
BRANCH   1   2
ATOM      2  N   LEU P   6      -4.488  16.486  33.402  1.00 26.96    -0.346 N 
ATOM      3  C   PHE P   5      -4.619  16.296  32.096  1.00 26.65     0.241 C 
ATOM      4  O   PHE P   5      -5.715  16.279  31.532  1.00 26.89    -0.271 OA
ATOM      5  HN  LEU P   6      -3.617  16.226  33.865  1.00  0.00     0.163 HD
BRANCH   3   6
ATOM      6  CA  PHE P   5      -3.325  16.112  31.305  1.00 26.38     0.180 C 
BRANCH   6   7
ATOM      7  N   PHE P   5      -2.644  17.354  30.943  1.00 25.31    -0.346 N 
ATOM      8  C   ASN P   4      -2.634  17.781  29.684  1.00 24.19     0.241 C 
ATOM      9  O   ASN P   4      -3.293  17.236  28.798  1.00 24.53    -0.271 OA
ATOM     10  HN  PHE P   5      -2.171  17.899  31.664  1.00  0.00     0.163 HD
BRANCH   8  11
ATOM     11  CA  ASN P   4      -1.746  18.988  29.376  1.00 23.29     0.185 C 
BRANCH  11  12
ATOM     12  N   ASN P   4      -2.440  20.238  29.683  1.00 22.91    -0.346 N 
ATOM     13  C   GLY P   3      -2.315  21.317  28.913  1.00 22.73     0.243 C 
ATOM     14  O   GLY P   3      -1.559  21.357  27.943  1.00 23.06    -0.272 OA
ATOM     15  HN  ASN P   4      -3.036  20.285  30.509  1.00  0.00     0.163 HD
BRANCH  13  16
ATOM     16  CA  GLY P   3      -3.152  22.523  29.291  1.00 22.18     0.332 C 
BRANCH  16  17
ATOM     17  N   GLY P   3      -2.713  23.050  30.610  1.00 22.17    -0.071 N 
ATOM     18  HN3 GLY P   3      -3.473  23.062  31.291  1.00  0.00     0.274 HD
ATOM     19  HN2 GLY P   3      -2.092  22.401  31.094  1.00  0.00     0.274 HD
ATOM     20  HN1 GLY P   3      -2.289  23.970  30.492  1.00  0.00     0.274 HD
ENDBRANCH  16  17
ENDBRANCH  13  16
ENDBRANCH  11  12
BRANCH  11  21
ATOM     21  CB  ASN P   4      -0.419  18.906  30.142  1.00 22.87     0.137 C 
BRANCH  21  22
ATOM     22  CG  ASN P   4       0.794  18.888  29.215  1.00 22.01     0.217 C 
ATOM     23  OD1 ASN P   4       1.926  18.677  29.656  1.00 20.72    -0.274 OA
ATOM     24  ND2 ASN P   4       0.558  19.109  27.923  1.00 20.11    -0.370 N 
ATOM     25 2HD2 ASN P   4      -0.378  19.284  27.558  1.00  0.00     0.159 HD
ATOM     26 1HD2 ASN P   4       1.368  19.097  27.303  1.00  0.00     0.159 HD
ENDBRANCH  21  22
ENDBRANCH  11  21
ENDBRANCH   8  11
ENDBRANCH   6   7
BRANCH   6  27
ATOM     27  CB  PHE P   5      -2.372  15.140  32.013  1.00 26.72     0.073 C 
BRANCH  27  28
ATOM     28  CG  PHE P   5      -0.982  15.141  31.446  1.00 27.87    -0.056 A 
ATOM     29  CD1 PHE P   5      -0.719  14.541  30.219  1.00 28.75     0.007 A 
ATOM     30  CE1 PHE P   5       0.565  14.552  29.680  1.00 29.75     0.001 A 
ATOM     31  CZ  PHE P   5       1.606  15.167  30.367  1.00 30.09     0.000 A 
ATOM     32  CE2 PHE P   5       1.356  15.768  31.602  1.00 31.07     0.001 A 
ATOM     33  CD2 PHE P   5       0.063  15.753  32.134  1.00 29.29     0.007 A 
ENDBRANCH  27  28
ENDBRANCH   6  27
ENDBRANCH   3   6
ENDBRANCH   1   2
BRANCH   1  34
ATOM     34  CB  LEU P   6      -5.493  16.588  35.633  1.00 27.44     0.038 C 
BRANCH  34  35
ATOM     35  CG  LEU P   6      -6.501  15.516  36.065  1.00 27.32    -0.020 C 
ATOM     36  CD2 LEU P   6      -5.841  14.193  36.431  1.00 27.17     0.009 C 
ATOM     37  CD1 LEU P   6      -7.546  15.324  34.999  1.00 26.03     0.009 C 
ENDBRANCH  34  35
ENDBRANCH   1  34
BRANCH   1  38
ATOM     38  C   LEU P   6      -5.434  18.577  34.135  1.00 27.77     0.241 C 
ATOM     39  O   LEU P   6      -6.294  19.271  33.607  1.00 27.73    -0.271 OA
ATOM     40  N   GLN P   7      -4.345  19.088  34.684  1.00 28.31    -0.346 N 
ATOM     41  HN  GLN P   7      -3.705  18.470  35.182  1.00  0.00     0.163 HD
BRANCH  40  42
ATOM     42  CA  GLN P   7      -4.034  20.497  34.597  1.00 29.28     0.177 C 
BRANCH  42  43
ATOM     43  CB  GLN P   7      -3.879  21.085  35.998  1.00 28.99     0.044 C 
BRANCH  43  44
ATOM     44  CG  GLN P   7      -4.033  20.098  37.128  1.00 27.75     0.105 C 
BRANCH  44  45
ATOM     45  CD  GLN P   7      -2.732  19.484  37.538  1.00 26.02     0.215 C 
ATOM     46  OE1 GLN P   7      -1.683  20.114  37.463  1.00 25.45    -0.274 OA
ATOM     47  NE2 GLN P   7      -2.787  18.244  37.978  1.00 25.39    -0.370 N 
ATOM     48 2HE2 GLN P   7      -1.900  17.826  38.257  1.00  0.00     0.159 HD
ATOM     49 1HE2 GLN P   7      -3.659  17.719  38.041  1.00  0.00     0.159 HD
ENDBRANCH  44  45
ENDBRANCH  43  44
ENDBRANCH  42  43
BRANCH  42  50
ATOM     50  C   GLN P   7      -2.774  20.706  33.755  1.00 30.56     0.241 C 
ATOM     51  O   GLN P   7      -2.821  20.748  32.535  1.00 30.78    -0.271 OA
ATOM     52  N   SER P   8      -1.645  20.879  34.422  1.00 32.07    -0.344 N 
ATOM     53  HN  SER P   8      -1.673  20.994  35.435  1.00  0.00     0.163 HD
BRANCH  52  54
ATOM     54  CA  SER P   8      -0.376  20.908  33.739  1.00 33.85     0.200 C 
BRANCH  54  55
ATOM     55  C   SER P   8       0.256  19.570  34.078  1.00 35.57     0.243 C 
ATOM     56  O   SER P   8       1.079  19.048  33.328  1.00 36.10    -0.271 OA
ATOM     57  N   ARG P   9      -0.103  19.013  35.219  1.00 37.22    -0.346 N 
ATOM     58  HN  ARG P   9      -0.624  19.556  35.908  1.00  0.00     0.163 HD
BRANCH  57  59
ATOM     59  CA  ARG P   9       0.239  17.642  35.495  1.00 38.61     0.172 C 
ATOM     60  CB  ARG P   9       0.827  17.513  36.880  1.00 38.49     0.042 C 
BRANCH  59  61
ATOM     61  C   ARG P   9      -1.057  16.856  35.379  1.00 40.02     0.243 C 
ATOM     62  N   PRO P  10      -1.022  15.581  35.765  1.00 40.73    -0.336 N 
ATOM     63  CD  PRO P  10       0.098  14.661  35.543  1.00 41.01     0.127 C 
ATOM     64  CA  PRO P  10      -2.191  14.834  36.194  1.00 41.26     0.188 C 
ATOM     65  CG  PRO P  10      -0.637  13.481  34.966  1.00 41.81     0.022 C 
ATOM     66  CB  PRO P  10      -2.042  13.559  35.344  1.00 41.41     0.038 C 
ATOM     67  O   ARG P   9      -2.048  17.357  34.845  1.00 40.72    -0.271 OA
BRANCH  64  68
ATOM     68  C   PRO P  10      -2.100  14.499  37.688  1.00 41.88     0.196 C 
ATOM     69  O   PRO P  10      -1.773  15.352  38.530  1.00 41.83    -0.646 OA
ATOM     70  OXT PRO P  10      -2.359  13.362  38.100  1.00 42.32    -0.646 OA
ENDBRANCH  64  68
ENDBRANCH  59  61
ENDBRANCH  57  59
ENDBRANCH  54  55
BRANCH  54  71
ATOM     71  CB  SER P   8       0.484  22.060  34.262  1.00 33.68     0.199 C 
BRANCH  71  72
ATOM     72  OG  SER P   8       1.863  21.838  34.028  1.00 33.39    -0.398 OA
ATOM     73  HG  SER P   8       2.301  21.488  34.795  1.00  0.00     0.209 HD
ENDBRANCH  71  72
ENDBRANCH  54  71
ENDBRANCH  52  54
ENDBRANCH  42  50
ENDBRANCH  40  42
ENDBRANCH   1  38
TORSDOF 26
                                                                                                                                                                     
ENDMDL
MODEL 8
REMARK VINA RESULT:     0.181      4.072      8.179
REMARK INTER + INTRA:         -10.025
REMARK INTER:                   0.000
REMARK INTRA:                 -10.025
REMARK UNBOUND:               -10.470
REMARK  26 active torsions:
REMARK  status: ('A' for Active; 'I' for Inactive)
REMARK    1  A    between atoms: N_1  and  CA_5 
REMARK    2  A    between atoms: CA_5  and  C_6 
REMARK       I    between atoms: C_6  and  N_8 
REMARK    3  A    between atoms: N_8  and  CA_10 
REMARK    4  A    between atoms: CA_10  and  CB_13 
REMARK    5  A    between atoms: CA_10  and  C_11 
REMARK       I    between atoms: C_11  and  N_19 
REMARK    6  A    between atoms: CB_13  and  CG_14 
REMARK       I    between atoms: CG_14  and  ND2_15 
REMARK    7  A    between atoms: N_19  and  CA_21 
REMARK    8  A    between atoms: CA_21  and  CB_24 
REMARK    9  A    between atoms: CA_21  and  C_22 
REMARK       I    between atoms: C_22  and  N_31 
REMARK   10  A    between atoms: CB_24  and  CG_25 
REMARK   11  A    between atoms: N_31  and  CA_33 
REMARK   12  A    between atoms: CA_33  and  CB_36 
REMARK   13  A    between atoms: CA_33  and  C_34 
REMARK       I    between atoms: C_34  and  N_40 
REMARK   14  A    between atoms: CB_36  and  CG_37 
REMARK   15  A    between atoms: N_40  and  CA_42 
REMARK   16  A    between atoms: CA_42  and  CB_45 
REMARK   17  A    between atoms: CA_42  and  C_43 
REMARK       I    between atoms: C_43  and  N_52 
REMARK   18  A    between atoms: CB_45  and  CG_46 
REMARK   19  A    between atoms: CG_46  and  CD_47 
REMARK       I    between atoms: CD_47  and  NE2_48 
REMARK   20  A    between atoms: N_52  and  CA_54 
REMARK   21  A    between atoms: CA_54  and  C_55 
REMARK   22  A    between atoms: CA_54  and  CB_57 
REMARK       I    between atoms: C_55  and  N_60 
REMARK   23  A    between atoms: CB_57  and  OG_58 
REMARK   24  A    between atoms: N_60  and  CA_62 
REMARK   25  A    between atoms: CA_62  and  C_63 
REMARK       I    between atoms: C_63  and  N_66 
REMARK   26  A    between atoms: CA_67  and  C_68 
ROOT
ATOM      1  CA  LEU P   6      -1.995  16.893  36.227  1.00 27.45     0.177 C 
ENDROOT
BRANCH   1   2
ATOM      2  N   LEU P   6      -3.208  17.685  36.162  1.00 26.96    -0.346 N 
ATOM      3  C   PHE P   5      -3.351  18.764  36.919  1.00 26.65     0.241 C 
ATOM      4  O   PHE P   5      -2.655  18.978  37.914  1.00 26.89    -0.271 OA
ATOM      5  HN  LEU P   6      -3.958  17.409  35.529  1.00  0.00     0.163 HD
BRANCH   3   6
ATOM      6  CA  PHE P   5      -4.428  19.757  36.485  1.00 26.38     0.180 C 
BRANCH   6   7
ATOM      7  N   PHE P   5      -4.062  20.603  35.350  1.00 25.31    -0.346 N 
ATOM      8  C   ASN P   4      -3.659  21.857  35.538  1.00 24.19     0.241 C 
ATOM      9  O   ASN P   4      -3.452  22.320  36.659  1.00 24.53    -0.271 OA
ATOM     10  HN  PHE P   5      -4.116  20.228  34.403  1.00  0.00     0.163 HD
BRANCH   8  11
ATOM     11  CA  ASN P   4      -3.474  22.713  34.284  1.00 23.29     0.185 C 
BRANCH  11  12
ATOM     12  N   ASN P   4      -2.281  22.305  33.544  1.00 22.91    -0.346 N 
ATOM     13  C   GLY P   3      -1.118  22.935  33.685  1.00 22.73     0.243 C 
ATOM     14  O   GLY P   3      -0.987  23.939  34.385  1.00 23.06    -0.272 OA
ATOM     15  HN  ASN P   4      -2.342  21.515  32.902  1.00  0.00     0.163 HD
BRANCH  13  16
ATOM     16  CA  GLY P   3       0.063  22.362  32.927  1.00 22.18     0.332 C 
BRANCH  16  17
ATOM     17  N   GLY P   3      -0.345  22.023  31.538  1.00 22.17    -0.071 N 
ATOM     18  HN3 GLY P   3      -1.221  22.474  31.274  1.00  0.00     0.274 HD
ATOM     19  HN2 GLY P   3       0.261  22.460  30.844  1.00  0.00     0.274 HD
ATOM     20  HN1 GLY P   3      -0.387  21.010  31.427  1.00  0.00     0.274 HD
ENDBRANCH  16  17
ENDBRANCH  13  16
ENDBRANCH  11  12
BRANCH  11  21
ATOM     21  CB  ASN P   4      -4.716  22.649  33.385  1.00 22.87     0.137 C 
BRANCH  21  22
ATOM     22  CG  ASN P   4      -4.407  22.097  31.995  1.00 22.01     0.217 C 
ATOM     23  OD1 ASN P   4      -3.824  22.786  31.155  1.00 20.72    -0.274 OA
ATOM     24  ND2 ASN P   4      -4.799  20.848  31.751  1.00 20.11    -0.370 N 
ATOM     25 2HD2 ASN P   4      -5.282  20.278  32.446  1.00  0.00     0.159 HD
ATOM     26 1HD2 ASN P   4      -4.593  20.479  30.823  1.00  0.00     0.159 HD
ENDBRANCH  21  22
ENDBRANCH  11  21
ENDBRANCH   8  11
ENDBRANCH   6   7
BRANCH   6  27
ATOM     27  CB  PHE P   5      -5.771  19.055  36.246  1.00 26.72     0.073 C 
BRANCH  27  28
ATOM     28  CG  PHE P   5      -6.784  19.916  35.549  1.00 27.87    -0.056 A 
ATOM     29  CD1 PHE P   5      -7.146  19.658  34.231  1.00 28.75     0.007 A 
ATOM     30  CE1 PHE P   5      -8.096  20.444  33.584  1.00 29.75     0.001 A 
ATOM     31  CZ  PHE P   5      -8.699  21.503  34.254  1.00 30.09     0.000 A 
ATOM     32  CE2 PHE P   5      -8.341  21.776  35.576  1.00 31.07     0.001 A 
ATOM     33  CD2 PHE P   5      -7.387  20.980  36.216  1.00 29.29     0.007 A 
ENDBRANCH  27  28
ENDBRANCH   6  27
ENDBRANCH   3   6
ENDBRANCH   1   2
BRANCH   1  34
ATOM     34  CB  LEU P   6      -2.307  15.414  35.986  1.00 27.44     0.038 C 
BRANCH  34  35
ATOM     35  CG  LEU P   6      -2.424  14.523  37.229  1.00 27.32    -0.020 C 
ATOM     36  CD2 LEU P   6      -3.852  14.410  37.748  1.00 27.17     0.009 C 
ATOM     37  CD1 LEU P   6      -1.491  15.008  38.306  1.00 26.03     0.009 C 
ENDBRANCH  34  35
ENDBRANCH   1  34
BRANCH   1  38
ATOM     38  C   LEU P   6      -1.046  17.388  35.140  1.00 27.77     0.241 C 
ATOM     39  O   LEU P   6      -0.023  17.996  35.427  1.00 27.73    -0.271 OA
ATOM     40  N   GLN P   7      -1.396  17.133  33.890  1.00 28.31    -0.346 N 
ATOM     41  HN  GLN P   7      -2.214  16.551  33.714  1.00  0.00     0.163 HD
BRANCH  40  42
ATOM     42  CA  GLN P   7      -0.652  17.657  32.766  1.00 29.28     0.177 C 
BRANCH  42  43
ATOM     43  CB  GLN P   7       0.056  16.521  32.033  1.00 28.99     0.044 C 
BRANCH  43  44
ATOM     44  CG  GLN P   7      -0.339  15.132  32.469  1.00 27.75     0.105 C 
BRANCH  44  45
ATOM     45  CD  GLN P   7      -1.271  14.468  31.505  1.00 26.02     0.215 C 
ATOM     46  OE1 GLN P   7      -1.391  14.880  30.356  1.00 25.45    -0.274 OA
ATOM     47  NE2 GLN P   7      -1.941  13.432  31.962  1.00 25.39    -0.370 N 
ATOM     48 2HE2 GLN P   7      -2.575  12.980  31.305  1.00  0.00     0.159 HD
ATOM     49 1HE2 GLN P   7      -1.841  13.089  32.918  1.00  0.00     0.159 HD
ENDBRANCH  44  45
ENDBRANCH  43  44
ENDBRANCH  42  43
BRANCH  42  50
ATOM     50  C   GLN P   7      -1.586  18.433  31.836  1.00 30.56     0.241 C 
ATOM     51  O   GLN P   7      -1.965  19.563  32.107  1.00 30.78    -0.271 OA
ATOM     52  N   SER P   8      -1.923  17.830  30.708  1.00 32.07    -0.344 N 
ATOM     53  HN  SER P   8      -1.462  16.958  30.447  1.00  0.00     0.163 HD
BRANCH  52  54
ATOM     54  CA  SER P   8      -2.931  18.386  29.840  1.00 33.85     0.200 C 
BRANCH  54  55
ATOM     55  C   SER P   8      -4.192  17.625  30.204  1.00 35.57     0.243 C 
ATOM     56  O   SER P   8      -5.270  18.203  30.327  1.00 36.10    -0.271 OA
ATOM     57  N   ARG P   9      -4.077  16.319  30.357  1.00 37.22    -0.346 N 
ATOM     58  HN  ARG P   9      -3.226  15.845  30.053  1.00  0.00     0.163 HD
BRANCH  57  59
ATOM     59  CA  ARG P   9      -5.148  15.562  30.951  1.00 38.61     0.172 C 
ATOM     60  CB  ARG P   9      -5.181  14.162  30.387  1.00 38.49     0.042 C 
BRANCH  59  61
ATOM     61  C   ARG P   9      -4.867  15.540  32.445  1.00 40.02     0.243 C 
ATOM     62  N   PRO P  10      -5.876  15.190  33.241  1.00 40.73    -0.336 N 
ATOM     63  CD  PRO P  10      -7.280  15.564  33.040  1.00 41.01     0.127 C 
ATOM     64  CA  PRO P  10      -5.703  14.641  34.573  1.00 41.26     0.188 C 
ATOM     65  CG  PRO P  10      -7.618  16.075  34.414  1.00 41.81     0.022 C 
ATOM     66  CB  PRO P  10      -6.669  15.530  35.377  1.00 41.41     0.038 C 
ATOM     67  O   ARG P   9      -3.788  15.941  32.885  1.00 40.72    -0.271 OA
BRANCH  64  68
ATOM     68  C   PRO P  10      -6.155  13.176  34.619  1.00 41.88     0.196 C 
ATOM     69  O   PRO P  10      -6.865  12.741  35.541  1.00 41.83    -0.646 OA
ATOM     70  OXT PRO P  10      -5.827  12.383  33.728  1.00 42.32    -0.646 OA
ENDBRANCH  64  68
ENDBRANCH  59  61
ENDBRANCH  57  59
ENDBRANCH  54  55
BRANCH  54  71
ATOM     71  CB  SER P   8      -2.561  18.152  28.375  1.00 33.68     0.199 C 
BRANCH  71  72
ATOM     72  OG  SER P   8      -1.937  16.894  28.182  1.00 33.39    -0.398 OA
ATOM     73  HG  SER P   8      -1.052  16.881  28.527  1.00  0.00     0.209 HD
ENDBRANCH  71  72
ENDBRANCH  54  71
ENDBRANCH  52  54
ENDBRANCH  42  50
ENDBRANCH  40  42
ENDBRANCH   1  38
TORSDOF 26
                                                                                                                                                                     
ENDMDL
MODEL 9
REMARK VINA RESULT:     0.219      2.916      6.984
REMARK INTER + INTRA:          -9.931
REMARK INTER:                   0.000
REMARK INTRA:                  -9.931
REMARK UNBOUND:               -10.470
REMARK  26 active torsions:
REMARK  status: ('A' for Active; 'I' for Inactive)
REMARK    1  A    between atoms: N_1  and  CA_5 
REMARK    2  A    between atoms: CA_5  and  C_6 
REMARK       I    between atoms: C_6  and  N_8 
REMARK    3  A    between atoms: N_8  and  CA_10 
REMARK    4  A    between atoms: CA_10  and  CB_13 
REMARK    5  A    between atoms: CA_10  and  C_11 
REMARK       I    between atoms: C_11  and  N_19 
REMARK    6  A    between atoms: CB_13  and  CG_14 
REMARK       I    between atoms: CG_14  and  ND2_15 
REMARK    7  A    between atoms: N_19  and  CA_21 
REMARK    8  A    between atoms: CA_21  and  CB_24 
REMARK    9  A    between atoms: CA_21  and  C_22 
REMARK       I    between atoms: C_22  and  N_31 
REMARK   10  A    between atoms: CB_24  and  CG_25 
REMARK   11  A    between atoms: N_31  and  CA_33 
REMARK   12  A    between atoms: CA_33  and  CB_36 
REMARK   13  A    between atoms: CA_33  and  C_34 
REMARK       I    between atoms: C_34  and  N_40 
REMARK   14  A    between atoms: CB_36  and  CG_37 
REMARK   15  A    between atoms: N_40  and  CA_42 
REMARK   16  A    between atoms: CA_42  and  CB_45 
REMARK   17  A    between atoms: CA_42  and  C_43 
REMARK       I    between atoms: C_43  and  N_52 
REMARK   18  A    between atoms: CB_45  and  CG_46 
REMARK   19  A    between atoms: CG_46  and  CD_47 
REMARK       I    between atoms: CD_47  and  NE2_48 
REMARK   20  A    between atoms: N_52  and  CA_54 
REMARK   21  A    between atoms: CA_54  and  C_55 
REMARK   22  A    between atoms: CA_54  and  CB_57 
REMARK       I    between atoms: C_55  and  N_60 
REMARK   23  A    between atoms: CB_57  and  OG_58 
REMARK   24  A    between atoms: N_60  and  CA_62 
REMARK   25  A    between atoms: CA_62  and  C_63 
REMARK       I    between atoms: C_63  and  N_66 
REMARK   26  A    between atoms: CA_67  and  C_68 
ROOT
ATOM      1  CA  LEU P   6      -5.118  18.352  34.904  1.00 27.45     0.177 C 
ENDROOT
BRANCH   1   2
ATOM      2  N   LEU P   6      -4.256  17.195  35.049  1.00 26.96    -0.346 N 
ATOM      3  C   PHE P   5      -4.765  15.971  35.056  1.00 26.65     0.241 C 
ATOM      4  O   PHE P   5      -5.959  15.746  35.264  1.00 26.89    -0.271 OA
ATOM      5  HN  LEU P   6      -3.249  17.324  35.146  1.00  0.00     0.163 HD
BRANCH   3   6
ATOM      6  CA  PHE P   5      -3.788  14.830  34.773  1.00 26.38     0.180 C 
BRANCH   6   7
ATOM      7  N   PHE P   5      -3.763  14.372  33.386  1.00 25.31    -0.346 N 
ATOM      8  C   ASN P   4      -4.299  13.204  33.045  1.00 24.19     0.241 C 
ATOM      9  O   ASN P   4      -4.947  12.521  33.839  1.00 24.53    -0.271 OA
ATOM     10  HN  PHE P   5      -3.328  14.955  32.670  1.00  0.00     0.163 HD
BRANCH   8  11
ATOM     11  CA  ASN P   4      -4.063  12.733  31.610  1.00 23.29     0.185 C 
BRANCH  11  12
ATOM     12  N   ASN P   4      -4.946  13.433  30.678  1.00 22.91    -0.346 N 
ATOM     13  C   GLY P   3      -6.115  12.921  30.301  1.00 22.73     0.243 C 
ATOM     14  O   GLY P   3      -6.495  11.803  30.649  1.00 23.06    -0.272 OA
ATOM     15  HN  ASN P   4      -4.658  14.338  30.307  1.00  0.00     0.163 HD
BRANCH  13  16
ATOM     16  CA  GLY P   3      -6.975  13.783  29.398  1.00 22.18     0.332 C 
BRANCH  16  17
ATOM     17  N   GLY P   3      -6.117  14.715  28.621  1.00 22.17    -0.071 N 
ATOM     18  HN3 GLY P   3      -6.566  15.020  27.757  1.00  0.00     0.274 HD
ATOM     19  HN2 GLY P   3      -6.034  15.626  29.073  1.00  0.00     0.274 HD
ATOM     20  HN1 GLY P   3      -5.206  14.287  28.450  1.00  0.00     0.274 HD
ENDBRANCH  16  17
ENDBRANCH  13  16
ENDBRANCH  11  12
BRANCH  11  21
ATOM     21  CB  ASN P   4      -2.594  12.917  31.203  1.00 22.87     0.137 C 
BRANCH  21  22
ATOM     22  CG  ASN P   4      -2.332  12.521  29.753  1.00 22.01     0.217 C 
ATOM     23  OD1 ASN P   4      -2.696  13.245  28.823  1.00 20.72    -0.274 OA
ATOM     24  ND2 ASN P   4      -1.696  11.368  29.557  1.00 20.11    -0.370 N 
ATOM     25 2HD2 ASN P   4      -1.394  10.770  30.326  1.00  0.00     0.159 HD
ATOM     26 1HD2 ASN P   4      -1.520  11.103  28.587  1.00  0.00     0.159 HD
ENDBRANCH  21  22
ENDBRANCH  11  21
ENDBRANCH   8  11
ENDBRANCH   6   7
BRANCH   6  27
ATOM     27  CB  PHE P   5      -2.377  15.168  35.275  1.00 26.72     0.073 C 
BRANCH  27  28
ATOM     28  CG  PHE P   5      -1.348  14.135  34.915  1.00 27.87    -0.056 A 
ATOM     29  CD1 PHE P   5      -1.313  12.912  35.575  1.00 28.75     0.007 A 
ATOM     30  CE1 PHE P   5      -0.371  11.943  35.235  1.00 29.75     0.001 A 
ATOM     31  CZ  PHE P   5       0.550  12.191  34.224  1.00 30.09     0.000 A 
ATOM     32  CE2 PHE P   5       0.529  13.418  33.556  1.00 31.07     0.001 A 
ATOM     33  CD2 PHE P   5      -0.422  14.382  33.905  1.00 29.29     0.007 A 
ENDBRANCH  27  28
ENDBRANCH   6  27
ENDBRANCH   3   6
ENDBRANCH   1   2
BRANCH   1  34
ATOM     34  CB  LEU P   6      -4.379  19.626  35.321  1.00 27.44     0.038 C 
BRANCH  34  35
ATOM     35  CG  LEU P   6      -5.231  20.753  35.918  1.00 27.32    -0.020 C 
ATOM     36  CD2 LEU P   6      -6.536  20.255  36.526  1.00 27.17     0.009 C 
ATOM     37  CD1 LEU P   6      -5.486  21.816  34.883  1.00 26.03     0.009 C 
ENDBRANCH  34  35
ENDBRANCH   1  34
BRANCH   1  38
ATOM     38  C   LEU P   6      -5.521  18.464  33.438  1.00 27.77     0.241 C 
ATOM     39  O   LEU P   6      -6.699  18.440  33.105  1.00 27.73    -0.271 OA
ATOM     40  N   GLN P   7      -4.536  18.577  32.562  1.00 28.31    -0.346 N 
ATOM     41  HN  GLN P   7      -3.580  18.676  32.902  1.00  0.00     0.163 HD
BRANCH  40  42
ATOM     42  CA  GLN P   7      -4.775  18.562  31.136  1.00 29.28     0.177 C 
BRANCH  42  43
ATOM     43  CB  GLN P   7      -4.326  19.884  30.517  1.00 28.99     0.044 C 
BRANCH  43  44
ATOM     44  CG  GLN P   7      -3.626  20.829  31.463  1.00 27.75     0.105 C 
BRANCH  44  45
ATOM     45  CD  GLN P   7      -2.142  20.835  31.277  1.00 26.02     0.215 C 
ATOM     46  OE1 GLN P   7      -1.629  20.376  30.262  1.00 25.45    -0.274 OA
ATOM     47  NE2 GLN P   7      -1.435  21.356  32.258  1.00 25.39    -0.370 N 
ATOM     48 2HE2 GLN P   7      -0.424  21.360  32.131  1.00  0.00     0.159 HD
ATOM     49 1HE2 GLN P   7      -1.861  21.738  33.102  1.00  0.00     0.159 HD
ENDBRANCH  44  45
ENDBRANCH  43  44
ENDBRANCH  42  43
BRANCH  42  50
ATOM     50  C   GLN P   7      -4.063  17.369  30.496  1.00 30.56     0.241 C 
ATOM     51  O   GLN P   7      -4.477  16.228  30.635  1.00 30.78    -0.271 OA
ATOM     52  N   SER P   8      -3.003  17.648  29.755  1.00 32.07    -0.344 N 
ATOM     53  HN  SER P   8      -2.784  18.621  29.537  1.00  0.00     0.163 HD
BRANCH  52  54
ATOM     54  CA  SER P   8      -2.153  16.599  29.250  1.00 33.85     0.200 C 
BRANCH  54  55
ATOM     55  C   SER P   8      -0.994  16.560  30.230  1.00 35.57     0.243 C 
ATOM     56  O   SER P   8      -0.344  15.530  30.405  1.00 36.10    -0.271 OA
ATOM     57  N   ARG P   9      -0.707  17.684  30.860  1.00 37.22    -0.346 N 
ATOM     58  HN  ARG P   9      -1.125  18.561  30.549  1.00  0.00     0.163 HD
BRANCH  57  59
ATOM     59  CA  ARG P   9       0.192  17.675  31.984  1.00 38.61     0.172 C 
ATOM     60  CB  ARG P   9       1.251  18.738  31.820  1.00 38.49     0.042 C 
BRANCH  59  61
ATOM     61  C   ARG P   9      -0.666  17.946  33.209  1.00 40.02     0.243 C 
ATOM     62  N   PRO P  10      -0.024  18.168  34.355  1.00 40.73    -0.336 N 
ATOM     63  CD  PRO P  10       1.195  17.476  34.788  1.00 41.01     0.127 C 
ATOM     64  CA  PRO P  10      -0.590  18.904  35.470  1.00 41.26     0.188 C 
ATOM     65  CG  PRO P  10       0.796  17.082  36.184  1.00 41.81     0.022 C 
ATOM     66  CB  PRO P  10      -0.297  17.936  36.630  1.00 41.41     0.038 C 
ATOM     67  O   ARG P   9      -1.893  17.846  33.149  1.00 40.72    -0.271 OA
BRANCH  64  68
ATOM     68  C   PRO P  10       0.153  20.231  35.675  1.00 41.88     0.196 C 
ATOM     69  O   PRO P  10       0.387  21.001  34.728  1.00 41.83    -0.646 OA
ATOM     70  OXT PRO P  10       0.538  20.576  36.798  1.00 42.32    -0.646 OA
ENDBRANCH  64  68
ENDBRANCH  59  61
ENDBRANCH  57  59
ENDBRANCH  54  55
BRANCH  54  71
ATOM     71  CB  SER P   8      -1.661  16.943  27.844  1.00 33.68     0.199 C 
BRANCH  71  72
ATOM     72  OG  SER P   8      -2.017  18.261  27.467  1.00 33.39    -0.398 OA
ATOM     73  HG  SER P   8      -1.862  18.420  26.543  1.00  0.00     0.209 HD
ENDBRANCH  71  72
ENDBRANCH  54  71
ENDBRANCH  52  54
ENDBRANCH  42  50
ENDBRANCH  40  42
ENDBRANCH   1  38
TORSDOF 26
                                                                                                                                                                     
ENDMDL
