REMARK  27 active torsions:
REMARK  status: ('A' for Active; 'I' for Inactive)
REMARK    1  A    between atoms: CA@A_1  and  C@A_3 
REMARK    2  A    between atoms: CA@A_1  and  O9@A_28 
REMARK    3  A    between atoms: CA5@A_2  and  C50@A_41 
REMARK    4  A    between atoms: CA5@A_2  and  O59@A_62 
REMARK    5  A    between atoms: C1@A_8  and  N1@A_9 
REMARK    6  A    between atoms: C1@A_8  and  C3@A_17 
REMARK    7  A    between atoms: C1@A_8  and  C2@A_13 
REMARK       I    between atoms: N1@A_9  and  C11@A_30 
REMARK    8  A    between atoms: O1@A_11  and  C2@A_13 
REMARK    9  A    between atoms: C2@A_13  and  C52@A_47 
REMARK   10  A    between atoms: N2@A_14  and  C10@A_29 
REMARK       I    between atoms: N2@A_14  and  C19@A_38 
REMARK   11  A    between atoms: C3@A_17  and  C4@A_18 
REMARK   12  A    between atoms: N4@A_19  and  C18@A_37 
REMARK       I    between atoms: N4@A_19  and  C31@A_40 
REMARK   13  A    between atoms: O9@A_28  and  C31@A_40 
REMARK   14  A    between atoms: C10@A_29  and  C11@A_30 
REMARK   15  A    between atoms: C10@A_29  and  C12@A_31 
REMARK   16  A    between atoms: C18@A_37  and  C19@A_38 
REMARK   17  A    between atoms: C51@A_42  and  C52@A_47 
REMARK   18  A    between atoms: C51@A_42  and  C53@A_51 
REMARK   19  A    between atoms: C51@A_42  and  N51@A_43 
REMARK       I    between atoms: N51@A_43  and  C61@A_64 
REMARK   20  A    between atoms: O51@A_45  and  C52@A_47 
REMARK   21  A    between atoms: N52@A_48  and  C60@A_63 
REMARK       I    between atoms: N52@A_48  and  C69@A_72 
REMARK   22  A    between atoms: C53@A_51  and  C54@A_52 
REMARK   23  A    between atoms: N54@A_53  and  C68@A_71 
REMARK       I    between atoms: N54@A_53  and  C81@A_74 
REMARK   24  A    between atoms: O59@A_62  and  C81@A_74 
REMARK   25  A    between atoms: C60@A_63  and  C61@A_64 
REMARK   26  A    between atoms: C60@A_63  and  C62@A_65 
REMARK   27  A    between atoms: C68@A_71  and  C69@A_72 
ROOT
HETATM    1  C2 A3TL A 201     -10.273 -15.158  12.925  0.50 23.53     0.171 C 
ENDROOT
BRANCH   1   2
HETATM    2  C1 A3TL A 201     -10.171 -14.200  11.751  0.50 24.03     0.120 C 
BRANCH   2   3
HETATM    3  N1 A3TL A 201     -11.100 -13.105  11.915  0.50 22.15    -0.352 N 
HETATM    4  C11A3TL A 201     -10.897 -12.141  12.802  0.50 20.71     0.241 C 
HETATM    5  O2 A3TL A 201      -9.905 -12.069  13.497  0.50 20.06    -0.271 OA
ATOM      6  H1 A3TL A 201     -11.936 -13.072  11.331  1.00  0.00     0.163 HD
BRANCH   4   7
HETATM    7  C10A3TL A 201     -12.004 -11.151  12.945  0.50 21.90     0.180 C 
BRANCH   7   8
HETATM    8  N2 A3TL A 201     -12.381 -10.758  11.592  0.50 22.74    -0.346 N 
HETATM    9  C19A3TL A 201     -11.969  -9.643  11.012  0.50 20.65     0.240 C 
HETATM   10  O4 A3TL A 201     -11.251  -8.839  11.573  0.50 20.58    -0.271 OA
ATOM     11  H2 A3TL A 201     -12.995 -11.378  11.065  1.00  0.00     0.163 HD
BRANCH   9  12
HETATM   12  C18A3TL A 201     -12.463  -9.405   9.613  0.50 21.31     0.174 C 
HETATM   13  C20A3TL A 201     -13.988  -9.414   9.596  0.50 21.62     0.042 C 
BRANCH  12  14
HETATM   14  N4 A3TL A 201     -11.935 -10.395   8.691  0.50 20.15    -0.324 N 
HETATM   15  C31A3TL A 201     -12.456 -11.621   8.576  0.50 21.29     0.361 C 
HETATM   16  O8 A3TL A 201     -13.448 -11.995   9.185  0.50 21.95    -0.238 OA
ATOM     17  H4 A3TL A 201     -11.136 -10.146   8.109  1.00  0.00     0.165 HD
BRANCH  15  18
HETATM   18  O9 A3TL A 201     -11.784 -12.562   7.689  0.50 21.63    -0.299 OA
BRANCH  18  19
HETATM   19  CA A3TL A 201     -11.770 -12.360   6.278  0.50 21.81     0.219 C 
BRANCH  19  20
HETATM   20  C  A3TL A 201     -12.277 -10.992   5.874  0.50 21.79    -0.034 A 
HETATM   21  C13A3TL A 201     -11.353 -10.013   5.478  0.50 21.75     0.009 A 
HETATM   22  C14A3TL A 201     -11.790  -8.753   5.083  0.50 21.99     0.001 A 
HETATM   23  C15A3TL A 201     -13.157  -8.460   5.088  0.50 22.18     0.000 A 
HETATM   24  C16A3TL A 201     -14.079  -9.436   5.481  0.50 21.95     0.001 A 
HETATM   25  C17A3TL A 201     -13.635 -10.707   5.871  0.50 21.80     0.009 A 
ENDBRANCH  19  20
ENDBRANCH  18  19
ENDBRANCH  15  18
ENDBRANCH  12  14
ENDBRANCH   9  12
ENDBRANCH   7   8
BRANCH   7  26
HETATM   26  C12A3TL A 201     -13.195 -11.715  13.719  0.50 22.73     0.009 C 
HETATM   27  CG1A3TL A 201     -13.753 -13.028  13.163  0.50 21.23     0.012 C 
HETATM   28  CG2A3TL A 201     -12.878 -11.878  15.202  0.50 23.06     0.012 C 
ENDBRANCH   7  26
ENDBRANCH   4   7
ENDBRANCH   2   3
BRANCH   2  29
HETATM   29  C3 A3TL A 201      -8.757 -13.638  11.633  0.50 23.17     0.066 C 
BRANCH  29  30
HETATM   30  C4 A3TL A 201      -8.138 -14.170  10.369  0.50 23.99    -0.056 A 
HETATM   31  C5 A3TL A 201      -8.028 -13.340   9.251  0.50 23.73     0.007 A 
HETATM   32  C6 A3TL A 201      -7.460 -13.849   8.085  0.50 25.44     0.001 A 
HETATM   33  C7 A3TL A 201      -7.012 -15.171   8.042  0.50 23.69     0.000 A 
HETATM   34  C8 A3TL A 201      -7.115 -15.986   9.164  0.50 24.33     0.001 A 
HETATM   35  C9 A3TL A 201      -7.676 -15.484  10.334  0.50 23.60     0.007 A 
ENDBRANCH  29  30
ENDBRANCH   2  29
ENDBRANCH   1   2
BRANCH   1  36
HETATM   36  O1 A3TL A 201     -11.578 -15.692  12.891  0.50 25.08    -0.391 OA
ATOM     37  H1 A3TL A 201     -11.679 -16.101  12.039  1.00  0.00     0.210 HD
ENDBRANCH   1  36
BRANCH   1  38
HETATM   38  C52A3TL A 201      -9.334 -16.349  12.864  0.50 25.46     0.171 C 
BRANCH  38  39
HETATM   39  C51A3TL A 201      -9.093 -17.071  14.176  0.50 25.56     0.120 C 
BRANCH  39  40
HETATM   40  C53A3TL A 201     -10.151 -16.478  15.101  0.50 27.60     0.066 C 
BRANCH  40  41
HETATM   41  C54A3TL A 201      -9.647 -15.372  15.989  0.50 27.75    -0.056 A 
HETATM   42  C55A3TL A 201      -9.247 -14.158  15.451  0.50 28.96     0.007 A 
HETATM   43  C56A3TL A 201      -8.785 -13.141  16.277  0.50 30.14     0.001 A 
HETATM   44  C57A3TL A 201      -8.733 -13.364  17.641  0.50 29.53     0.000 A 
HETATM   45  C58A3TL A 201      -9.151 -14.581  18.179  0.50 30.00     0.001 A 
HETATM   46  C59A3TL A 201      -9.611 -15.587  17.349  0.50 27.96     0.007 A 
ENDBRANCH  40  41
ENDBRANCH  39  40
BRANCH  39  47
HETATM   47  N51A3TL A 201      -7.736 -16.750  14.602  0.50 25.08    -0.352 N 
HETATM   48  C61A3TL A 201      -7.083 -15.610  14.378  0.50 23.99     0.241 C 
HETATM   49  O52A3TL A 201      -7.491 -14.705  13.662  0.50 24.43    -0.271 OA
ATOM     50  H51A3TL A 201      -7.236 -17.470  15.123  1.00  0.00     0.163 HD
BRANCH  48  51
HETATM   51  C60A3TL A 201      -5.748 -15.530  15.060  0.50 25.01     0.180 C 
BRANCH  51  52
HETATM   52  N52A3TL A 201      -5.800 -16.336  16.279  0.50 25.81    -0.346 N 
HETATM   53  C69A3TL A 201      -6.398 -15.974  17.417  0.50 24.47     0.240 C 
HETATM   54  O54A3TL A 201      -6.766 -14.836  17.656  0.50 23.91    -0.271 OA
ATOM     55  H52A3TL A 201      -5.342 -17.247  16.258  1.00  0.00     0.163 HD
BRANCH  53  56
HETATM   56  C68A3TL A 201      -6.532 -17.048  18.465  0.50 25.59     0.174 C 
HETATM   57  C70A3TL A 201      -6.161 -16.594  19.875  0.50 23.19     0.042 C 
BRANCH  56  58
HETATM   58  N54A3TL A 201      -5.707 -18.185  18.105  0.50 25.74    -0.324 N 
HETATM   59  C81A3TL A 201      -4.385 -18.088  18.023  0.50 26.08     0.361 C 
HETATM   60  O58A3TL A 201      -3.776 -17.040  18.182  0.50 26.09    -0.238 OA
ATOM     61  H54A3TL A 201      -6.154 -19.081  17.909  1.00  0.00     0.165 HD
BRANCH  59  62
HETATM   62  O59A3TL A 201      -3.662 -19.304  17.700  0.50 27.11    -0.299 OA
BRANCH  62  63
HETATM   63  CA5A3TL A 201      -2.372 -19.239  17.091  0.50 27.41     0.219 C 
BRANCH  63  64
HETATM   64  C50A3TL A 201      -1.526 -18.139  17.696  0.50 27.98    -0.034 A 
HETATM   65  C63A3TL A 201      -1.198 -18.205  19.051  0.50 26.63     0.009 A 
HETATM   66  C64A3TL A 201      -0.406 -17.212  19.631  0.50 27.63     0.001 A 
HETATM   67  C65A3TL A 201       0.060 -16.151  18.859  0.50 27.20     0.000 A 
HETATM   68  C66A3TL A 201      -0.263 -16.092  17.502  0.50 28.19     0.001 A 
HETATM   69  C67A3TL A 201      -1.051 -17.086  16.913  0.50 27.18     0.009 A 
ENDBRANCH  63  64
ENDBRANCH  62  63
ENDBRANCH  59  62
ENDBRANCH  56  58
ENDBRANCH  53  56
ENDBRANCH  51  52
BRANCH  51  70
HETATM   70  C62A3TL A 201      -4.588 -15.899  14.117  0.50 26.20     0.009 C 
HETATM   71  CG5A3TL A 201      -3.786 -17.059  14.690  0.50 24.92     0.012 C 
HETATM   72  CG6A3TL A 201      -5.053 -16.264  12.700  0.50 25.77     0.012 C 
ENDBRANCH  51  70
ENDBRANCH  48  51
ENDBRANCH  39  47
ENDBRANCH  38  39
BRANCH  38  73
HETATM   73  O51A3TL A 201      -9.919 -17.288  11.965  0.50 24.73    -0.391 OA
ATOM     74  H51A3TL A 201     -10.521 -17.817  12.475  1.00  0.00     0.210 HD
ENDBRANCH  38  73
ENDBRANCH   1  38
TORSDOF 27
