REMARK  26 active torsions:
REMARK  status: ('A' for Active; 'I' for Inactive)
REMARK    1  A    between atoms: N_1  and  CA_5 
REMARK    2  A    between atoms: CA_5  and  C_6 
REMARK       I    between atoms: C_6  and  N_8 
REMARK    3  A    between atoms: N_8  and  CA_10 
REMARK    4  A    between atoms: CA_10  and  CB_13 
REMARK    5  A    between atoms: CA_10  and  C_11 
REMARK       I    between atoms: C_11  and  N_19 
REMARK    6  A    between atoms: CB_13  and  CG_14 
REMARK       I    between atoms: CG_14  and  ND2_15 
REMARK    7  A    between atoms: N_19  and  CA_21 
REMARK    8  A    between atoms: CA_21  and  CB_24 
REMARK    9  A    between atoms: CA_21  and  C_22 
REMARK       I    between atoms: C_22  and  N_31 
REMARK   10  A    between atoms: CB_24  and  CG_25 
REMARK   11  A    between atoms: N_31  and  CA_33 
REMARK   12  A    between atoms: CA_33  and  CB_36 
REMARK   13  A    between atoms: CA_33  and  C_34 
REMARK       I    between atoms: C_34  and  N_40 
REMARK   14  A    between atoms: CB_36  and  CG_37 
REMARK   15  A    between atoms: N_40  and  CA_42 
REMARK   16  A    between atoms: CA_42  and  CB_45 
REMARK   17  A    between atoms: CA_42  and  C_43 
REMARK       I    between atoms: C_43  and  N_52 
REMARK   18  A    between atoms: CB_45  and  CG_46 
REMARK   19  A    between atoms: CG_46  and  CD_47 
REMARK       I    between atoms: CD_47  and  NE2_48 
REMARK   20  A    between atoms: N_52  and  CA_54 
REMARK   21  A    between atoms: CA_54  and  C_55 
REMARK   22  A    between atoms: CA_54  and  CB_57 
REMARK       I    between atoms: C_55  and  N_60 
REMARK   23  A    between atoms: CB_57  and  OG_58 
REMARK   24  A    between atoms: N_60  and  CA_62 
REMARK   25  A    between atoms: CA_62  and  C_63 
REMARK       I    between atoms: C_63  and  N_66 
REMARK   26  A    between atoms: CA_67  and  C_68 
ROOT
ATOM      1  CA  LEU P   6      10.845 -15.394   0.432  1.00 27.45     0.177 C 
ENDROOT
BRANCH   1   2
ATOM      2  N   LEU P   6       9.795 -15.816  -0.474  1.00 26.96    -0.346 N 
ATOM      3  C   PHE P   5       8.964 -16.793  -0.137  1.00 26.65     0.241 C 
ATOM      4  O   PHE P   5       9.208 -17.594   0.768  1.00 26.89    -0.271 OA
ATOM      5  HN  LEU P   6       9.694 -15.357  -1.379  1.00  0.00     0.163 HD
BRANCH   3   6
ATOM      6  CA  PHE P   5       7.658 -16.873  -0.926  1.00 26.38     0.180 C 
BRANCH   6   7
ATOM      7  N   PHE P   5       7.815 -17.188  -2.345  1.00 25.31    -0.346 N 
ATOM      8  C   ASN P   4       7.846 -16.221  -3.257  1.00 24.19     0.241 C 
ATOM      9  O   ASN P   4       7.875 -15.029  -2.951  1.00 24.53    -0.271 OA
ATOM     10  HN  PHE P   5       7.902 -18.161  -2.639  1.00  0.00     0.163 HD
BRANCH   8  11
ATOM     11  CA  ASN P   4       7.831 -16.659  -4.722  1.00 23.29     0.185 C 
BRANCH  11  12
ATOM     12  N   ASN P   4       6.463 -16.724  -5.234  1.00 22.91    -0.346 N 
ATOM     13  C   GLY P   3       5.965 -17.837  -5.766  1.00 22.73     0.243 C 
ATOM     14  O   GLY P   3       6.638 -18.855  -5.928  1.00 23.06    -0.272 OA
ATOM     15  HN  ASN P   4       5.874 -15.893  -5.182  1.00  0.00     0.163 HD
BRANCH  13  16
ATOM     16  CA  GLY P   3       4.508 -17.800  -6.182  1.00 22.18     0.332 C 
BRANCH  16  17
ATOM     17  N   GLY P   3       4.236 -16.563  -6.960  1.00 22.17    -0.071 N 
ATOM     18  HN3 GLY P   3       4.511 -15.722  -6.452  1.00  0.00     0.274 HD
ATOM     19  HN2 GLY P   3       4.865 -16.466  -7.757  1.00  0.00     0.274 HD
ATOM     20  HN1 GLY P   3       3.255 -16.538  -7.240  1.00  0.00     0.274 HD
ENDBRANCH  16  17
ENDBRANCH  13  16
ENDBRANCH  11  12
BRANCH  11  21
ATOM     21  CB  ASN P   4       8.687 -15.723  -5.586  1.00 22.87     0.137 C 
BRANCH  21  22
ATOM     22  CG  ASN P   4       8.777 -16.183  -7.039  1.00 22.01     0.217 C 
ATOM     23  OD1 ASN P   4       9.073 -17.347  -7.318  1.00 20.72    -0.274 OA
ATOM     24  ND2 ASN P   4       8.520 -15.266  -7.970  1.00 20.11    -0.370 N 
ATOM     25 2HD2 ASN P   4       8.275 -14.303  -7.739  1.00  0.00     0.159 HD
ATOM     26 1HD2 ASN P   4       8.580 -15.573  -8.941  1.00  0.00     0.159 HD
ENDBRANCH  21  22
ENDBRANCH  11  21
ENDBRANCH   8  11
ENDBRANCH   6   7
BRANCH   6  27
ATOM     27  CB  PHE P   5       6.656 -17.821  -0.252  1.00 26.72     0.073 C 
BRANCH  27  28
ATOM     28  CG  PHE P   5       5.345 -17.923  -0.976  1.00 27.87    -0.056 A 
ATOM     29  CD1 PHE P   5       4.348 -16.975  -0.770  1.00 28.75     0.007 A 
ATOM     30  CE1 PHE P   5       3.135 -17.055  -1.450  1.00 29.75     0.001 A 
ATOM     31  CZ  PHE P   5       2.906 -18.091  -2.349  1.00 30.09     0.000 A 
ATOM     32  CE2 PHE P   5       3.897 -19.052  -2.561  1.00 31.07     0.001 A 
ATOM     33  CD2 PHE P   5       5.111 -18.961  -1.874  1.00 29.29     0.007 A 
ENDBRANCH  27  28
ENDBRANCH   6  27
ENDBRANCH   3   6
ENDBRANCH   1   2
BRANCH   1  34
ATOM     34  CB  LEU P   6      11.625 -14.219  -0.162  1.00 27.44     0.038 C 
BRANCH  34  35
ATOM     35  CG  LEU P   6      12.516 -13.425   0.802  1.00 27.32    -0.020 C 
ATOM     36  CD2 LEU P   6      12.981 -12.095   0.223  1.00 27.17     0.009 C 
ATOM     37  CD1 LEU P   6      13.686 -14.265   1.240  1.00 26.03     0.009 C 
ENDBRANCH  34  35
ENDBRANCH   1  34
BRANCH   1  38
ATOM     38  C   LEU P   6      10.196 -14.954   1.740  1.00 27.77     0.241 C 
ATOM     39  O   LEU P   6       9.097 -14.414   1.747  1.00 27.73    -0.271 OA
ATOM     40  N   GLN P   7      10.886 -15.178   2.846  1.00 28.31    -0.346 N 
ATOM     41  HN  GLN P   7      11.756 -15.706   2.788  1.00  0.00     0.163 HD
BRANCH  40  42
ATOM     42  CA  GLN P   7      10.443 -14.696   4.135  1.00 29.28     0.177 C 
BRANCH  42  43
ATOM     43  CB  GLN P   7       9.421 -15.661   4.731  1.00 28.99     0.044 C 
BRANCH  43  44
ATOM     44  CG  GLN P   7       8.763 -15.191   6.005  1.00 27.75     0.105 C 
BRANCH  44  45
ATOM     45  CD  GLN P   7       9.548 -15.553   7.226  1.00 26.02     0.215 C 
ATOM     46  OE1 GLN P   7      10.290 -16.529   7.235  1.00 25.45    -0.274 OA
ATOM     47  NE2 GLN P   7       9.392 -14.768   8.271  1.00 25.39    -0.370 N 
ATOM     48 2HE2 GLN P   7       9.927 -15.015   9.103  1.00  0.00     0.159 HD
ATOM     49 1HE2 GLN P   7       8.775 -13.956   8.264  1.00  0.00     0.159 HD
ENDBRANCH  44  45
ENDBRANCH  43  44
ENDBRANCH  42  43
BRANCH  42  50
ATOM     50  C   GLN P   7      11.643 -14.501   5.063  1.00 30.56     0.241 C 
ATOM     51  O   GLN P   7      12.349 -15.439   5.401  1.00 30.78    -0.271 OA
ATOM     52  N   SER P   8      11.895 -13.259   5.442  1.00 32.07    -0.344 N 
ATOM     53  HN  SER P   8      11.380 -12.489   5.014  1.00  0.00     0.163 HD
BRANCH  52  54
ATOM     54  CA  SER P   8      12.886 -12.976   6.450  1.00 33.85     0.200 C 
BRANCH  54  55
ATOM     55  C   SER P   8      12.122 -12.206   7.512  1.00 35.57     0.243 C 
ATOM     56  O   SER P   8      10.978 -11.804   7.306  1.00 36.10    -0.271 OA
ATOM     57  N   ARG P   9      12.734 -12.013   8.665  1.00 37.22    -0.346 N 
ATOM     58  HN  ARG P   9      13.590 -12.526   8.878  1.00  0.00     0.163 HD
BRANCH  57  59
ATOM     59  CA  ARG P   9      12.198 -11.081   9.623  1.00 38.61     0.172 C 
ATOM     60  CB  ARG P   9      11.939 -11.770  10.941  1.00 38.49     0.042 C 
BRANCH  59  61
ATOM     61  C   ARG P   9      13.245  -9.990   9.776  1.00 40.02     0.243 C 
ATOM     62  N   PRO P  10      13.004  -8.836   9.155  1.00 40.73    -0.336 N 
ATOM     63  CD  PRO P  10      12.385  -8.701   7.832  1.00 41.01     0.127 C 
ATOM     64  CA  PRO P  10      13.581  -7.566   9.556  1.00 41.26     0.188 C 
ATOM     65  CG  PRO P  10      13.360  -7.762   7.176  1.00 41.81     0.022 C 
ATOM     66  CB  PRO P  10      14.111  -7.053   8.205  1.00 41.41     0.038 C 
ATOM     67  O   ARG P   9      14.310 -10.219  10.352  1.00 40.72    -0.271 OA
BRANCH  64  68
ATOM     68  C   PRO P  10      12.497  -6.627  10.101  1.00 41.88     0.196 C 
ATOM     69  O   PRO P  10      11.311  -6.984  10.194  1.00 41.83    -0.646 OA
ATOM     70  OXT PRO P  10      12.778  -5.481  10.471  1.00 42.32    -0.646 OA
ENDBRANCH  64  68
ENDBRANCH  59  61
ENDBRANCH  57  59
ENDBRANCH  54  55
BRANCH  54  71
ATOM     71  CB  SER P   8      14.011 -12.121   5.866  1.00 33.68     0.199 C 
BRANCH  71  72
ATOM     72  OG  SER P   8      15.261 -12.410   6.467  1.00 33.39    -0.398 OA
ATOM     73  HG  SER P   8      15.960 -11.879   6.104  1.00  0.00     0.209 HD
ENDBRANCH  71  72
ENDBRANCH  54  71
ENDBRANCH  52  54
ENDBRANCH  42  50
ENDBRANCH  40  42
ENDBRANCH   1  38
TORSDOF 26
