          AutoDock 4.2 Release 4.2.6   
         (C) 1989-2012 The Scripps Research Institute
        AutoDock comes with ABSOLUTELY NO WARRANTY.
        AutoDock is free software, and you are welcome
        to redistribute it under certain conditions;
        for details type 'autodock4 -C'

                     main.cc  $Revision: 1.213 $

                   Compiled on Jul 18 2014 at 15:34:58


This file was created at:			10:47 56" p.m., 11/24/2025
                   on host:		"LAPTOP-PFTQOH6G"
Current Working Directory = "C:\Program Files (x86)\Docking\November 25\2411 Docking\2P3B"

      ________________________________________________________________

                   SETTING UP DEFAULT PARAMETER LIBRARY
      ________________________________________________________________


Random number generator was seeded with values 13336, 1764013676.
Docking parameter file (DPF) used for this docking:		dock.dpf
DPF> autodock_parameter_version 4.2       # used by autodock to validate parameter set

	Autodock parameter version 4.2.
DPF> outlev 1                             # diagnostic output level

Output Level = 1  ADT-COMPATIBLE OUTPUT DURING DOCKING.
DPF> intelec                              # calculate internal electrostatics

Electrostatic energies will be calculated for all non-bonds between moving atoms.
DPF> seed pid time                        # seeds for random generator

Random number generator was seeded with values 13336, 1764013676.
DPF> ligand_types A C HD OA N             # atoms types in ligand

DPF> fld 2p3b.maps.fld                    # grid_data_file

Opening Grid Map Dimensions file:		2p3b.maps.fld
Grid Point Spacing =				0.375 Angstroms

Even Number of User-specified Grid Points =	34 x-points
						50 y-points
						62 z-points

Coordinates of Central Grid Point of Maps =	(15.936, 0.275, 0.268)
Macromolecule file used to create Grid Maps =	2p3b.pdbqt
Grid Parameter file used to create Grid Maps =	grid.gpf
Minimum coordinates in grid = (9.561, -9.100, -11.357)
Maximum coordinates in grid = (22.311, 9.650, 11.893)

DPF> map 2p3b.A.map                       # atom-specific affinity map

DPF> map 2p3b.C.map                       # atom-specific affinity map

DPF> map 2p3b.HD.map                      # atom-specific affinity map

DPF> map 2p3b.OA.map                      # atom-specific affinity map

DPF> map 2p3b.N.map                       # atom-specific affinity map

DPF> elecmap 2p3b.e.map                   # electrostatics map

DPF> desolvmap 2p3b.d.map                 # desolvation map

DPF> move lig2p3b.pdbqt                   # small molecule

1,4-interactions will be _ignored_ in the non-bonded internal energy calculation.

Ligand PDBQT file = "lig2p3b.pdbqt"

INPUT LIGAND PDBQT FILE:
________________________

INPUT-LIGAND-PDBQT: REMARK  27 active torsions:
INPUT-LIGAND-PDBQT: REMARK  status: ('A' for Active; 'I' for Inactive)
INPUT-LIGAND-PDBQT: REMARK    1  A    between atoms: CA@A_1  and  C@A_3 
INPUT-LIGAND-PDBQT: REMARK    2  A    between atoms: CA@A_1  and  O9@A_28 
INPUT-LIGAND-PDBQT: REMARK    3  A    between atoms: CA5@A_2  and  C50@A_41 
INPUT-LIGAND-PDBQT: REMARK    4  A    between atoms: CA5@A_2  and  O59@A_62 
INPUT-LIGAND-PDBQT: REMARK    5  A    between atoms: C1@A_8  and  N1@A_9 
INPUT-LIGAND-PDBQT: REMARK    6  A    between atoms: C1@A_8  and  C3@A_17 
INPUT-LIGAND-PDBQT: REMARK    7  A    between atoms: C1@A_8  and  C2@A_13 
INPUT-LIGAND-PDBQT: REMARK       I    between atoms: N1@A_9  and  C11@A_30 
INPUT-LIGAND-PDBQT: REMARK    8  A    between atoms: O1@A_11  and  C2@A_13 
INPUT-LIGAND-PDBQT: REMARK    9  A    between atoms: C2@A_13  and  C52@A_47 
INPUT-LIGAND-PDBQT: REMARK   10  A    between atoms: N2@A_14  and  C10@A_29 
INPUT-LIGAND-PDBQT: REMARK       I    between atoms: N2@A_14  and  C19@A_38 
INPUT-LIGAND-PDBQT: REMARK   11  A    between atoms: C3@A_17  and  C4@A_18 
INPUT-LIGAND-PDBQT: REMARK   12  A    between atoms: N4@A_19  and  C18@A_37 
INPUT-LIGAND-PDBQT: REMARK       I    between atoms: N4@A_19  and  C31@A_40 
INPUT-LIGAND-PDBQT: REMARK   13  A    between atoms: O9@A_28  and  C31@A_40 
INPUT-LIGAND-PDBQT: REMARK   14  A    between atoms: C10@A_29  and  C11@A_30 
INPUT-LIGAND-PDBQT: REMARK   15  A    between atoms: C10@A_29  and  C12@A_31 
INPUT-LIGAND-PDBQT: REMARK   16  A    between atoms: C18@A_37  and  C19@A_38 
INPUT-LIGAND-PDBQT: REMARK   17  A    between atoms: C51@A_42  and  C52@A_47 
INPUT-LIGAND-PDBQT: REMARK   18  A    between atoms: C51@A_42  and  C53@A_51 
INPUT-LIGAND-PDBQT: REMARK   19  A    between atoms: C51@A_42  and  N51@A_43 
INPUT-LIGAND-PDBQT: REMARK       I    between atoms: N51@A_43  and  C61@A_64 
INPUT-LIGAND-PDBQT: REMARK   20  A    between atoms: O51@A_45  and  C52@A_47 
INPUT-LIGAND-PDBQT: REMARK   21  A    between atoms: N52@A_48  and  C60@A_63 
INPUT-LIGAND-PDBQT: REMARK       I    between atoms: N52@A_48  and  C69@A_72 
INPUT-LIGAND-PDBQT: REMARK   22  A    between atoms: C53@A_51  and  C54@A_52 
INPUT-LIGAND-PDBQT: REMARK   23  A    between atoms: N54@A_53  and  C68@A_71 
INPUT-LIGAND-PDBQT: REMARK       I    between atoms: N54@A_53  and  C81@A_74 
INPUT-LIGAND-PDBQT: REMARK   24  A    between atoms: O59@A_62  and  C81@A_74 
INPUT-LIGAND-PDBQT: REMARK   25  A    between atoms: C60@A_63  and  C61@A_64 
INPUT-LIGAND-PDBQT: REMARK   26  A    between atoms: C60@A_63  and  C62@A_65 
INPUT-LIGAND-PDBQT: REMARK   27  A    between atoms: C68@A_71  and  C69@A_72 
INPUT-LIGAND-PDBQT: ROOT
INPUT-LIGAND-PDBQT: HETATM    1  C2 A3TL A 101      19.917   0.301   0.558  0.50 18.16     0.171 C 
INPUT-LIGAND-PDBQT: ENDROOT
INPUT-LIGAND-PDBQT: BRANCH   1   2
INPUT-LIGAND-PDBQT: HETATM    2  C1 A3TL A 101      19.001   1.400   1.111  0.50 17.44     0.120 C 
INPUT-LIGAND-PDBQT: BRANCH   2   3
INPUT-LIGAND-PDBQT: HETATM    3  N1 A3TL A 101      19.105   1.523   2.572  0.50 14.55    -0.352 N 
INPUT-LIGAND-PDBQT: HETATM    4  C11A3TL A 101      18.106   1.225   3.414  0.50 13.09     0.241 C 
INPUT-LIGAND-PDBQT: HETATM    5  O2 A3TL A 101      16.975   0.945   3.029  0.50 13.61    -0.271 OA
INPUT-LIGAND-PDBQT: ATOM      6  H1 A3TL A 101      19.986   1.853   2.967  1.00  0.00     0.163 HD
INPUT-LIGAND-PDBQT: BRANCH   4   7
INPUT-LIGAND-PDBQT: HETATM    7  C10A3TL A 101      18.427   1.258   4.888  0.50 13.44     0.180 C 
INPUT-LIGAND-PDBQT: BRANCH   7   8
INPUT-LIGAND-PDBQT: HETATM    8  N2 A3TL A 101      17.747   2.344   5.567  0.50 13.93    -0.346 N 
INPUT-LIGAND-PDBQT: HETATM    9  C19A3TL A 101      18.400   3.258   6.291  0.50 14.66     0.240 C 
INPUT-LIGAND-PDBQT: HETATM   10  O4 A3TL A 101      19.571   3.126   6.619  0.50 14.30    -0.271 OA
INPUT-LIGAND-PDBQT: ATOM     11  H2 A3TL A 101      16.732   2.413   5.489  1.00  0.00     0.163 HD
INPUT-LIGAND-PDBQT: BRANCH   9  12
INPUT-LIGAND-PDBQT: HETATM   12  C18A3TL A 101      17.594   4.473   6.687  0.50 15.36     0.174 C 
INPUT-LIGAND-PDBQT: HETATM   13  C20A3TL A 101      17.961   5.643   5.794  0.50 16.54     0.042 C 
INPUT-LIGAND-PDBQT: BRANCH  12  14
INPUT-LIGAND-PDBQT: HETATM   14  N4 A3TL A 101      17.713   4.845   8.086  0.50 14.88    -0.324 N 
INPUT-LIGAND-PDBQT: HETATM   15  C31A3TL A 101      16.667   4.677   8.903  0.50 16.17     0.361 C 
INPUT-LIGAND-PDBQT: HETATM   16  O8 A3TL A 101      15.656   4.102   8.566  0.50 13.59    -0.238 OA
INPUT-LIGAND-PDBQT: ATOM     17  H4 A3TL A 101      18.587   5.231   8.443  1.00  0.00     0.165 HD
INPUT-LIGAND-PDBQT: BRANCH  15  18
INPUT-LIGAND-PDBQT: HETATM   18  O9 A3TL A 101      16.736   5.173  10.259  0.50 16.84    -0.299 OA
INPUT-LIGAND-PDBQT: BRANCH  18  19
INPUT-LIGAND-PDBQT: HETATM   19  CA A3TL A 101      15.585   5.287  11.119  0.50 17.91     0.219 C 
INPUT-LIGAND-PDBQT: BRANCH  19  20
INPUT-LIGAND-PDBQT: HETATM   20  C  A3TL A 101      14.593   6.385  10.743  0.50 18.01    -0.034 A 
INPUT-LIGAND-PDBQT: HETATM   21  C13A3TL A 101      13.366   6.465  11.422  0.50 18.88     0.009 A 
INPUT-LIGAND-PDBQT: HETATM   22  C14A3TL A 101      12.429   7.458  11.128  0.50 17.78     0.001 A 
INPUT-LIGAND-PDBQT: HETATM   23  C15A3TL A 101      12.704   8.380  10.123  0.50 18.37     0.000 A 
INPUT-LIGAND-PDBQT: HETATM   24  C16A3TL A 101      13.918   8.316   9.442  0.50 18.86     0.001 A 
INPUT-LIGAND-PDBQT: HETATM   25  C17A3TL A 101      14.854   7.322   9.754  0.50 17.85     0.009 A 
INPUT-LIGAND-PDBQT: ENDBRANCH  19  20
INPUT-LIGAND-PDBQT: ENDBRANCH  18  19
INPUT-LIGAND-PDBQT: ENDBRANCH  15  18
INPUT-LIGAND-PDBQT: ENDBRANCH  12  14
INPUT-LIGAND-PDBQT: ENDBRANCH   9  12
INPUT-LIGAND-PDBQT: ENDBRANCH   7   8
INPUT-LIGAND-PDBQT: BRANCH   7  26
INPUT-LIGAND-PDBQT: HETATM   26  C12A3TL A 101      18.090  -0.061   5.611  0.50 14.14     0.009 C 
INPUT-LIGAND-PDBQT: HETATM   27  CG1A3TL A 101      18.645  -1.282   4.883  0.50 14.59     0.012 C 
INPUT-LIGAND-PDBQT: HETATM   28  CG2A3TL A 101      18.622  -0.089   7.033  0.50 12.06     0.012 C 
INPUT-LIGAND-PDBQT: ENDBRANCH   7  26
INPUT-LIGAND-PDBQT: ENDBRANCH   4   7
INPUT-LIGAND-PDBQT: ENDBRANCH   2   3
INPUT-LIGAND-PDBQT: BRANCH   2  29
INPUT-LIGAND-PDBQT: HETATM   29  C3 A3TL A 101      19.304   2.719   0.385  0.50 18.33     0.066 C 
INPUT-LIGAND-PDBQT: BRANCH  29  30
INPUT-LIGAND-PDBQT: HETATM   30  C4 A3TL A 101      18.500   3.851   0.974  0.50 17.79    -0.056 A 
INPUT-LIGAND-PDBQT: HETATM   31  C5 A3TL A 101      19.074   4.718   1.909  0.50 18.96     0.007 A 
INPUT-LIGAND-PDBQT: HETATM   32  C6 A3TL A 101      18.327   5.770   2.451  0.50 20.19     0.001 A 
INPUT-LIGAND-PDBQT: HETATM   33  C7 A3TL A 101      16.993   5.936   2.070  0.50 19.47     0.000 A 
INPUT-LIGAND-PDBQT: HETATM   34  C8 A3TL A 101      16.422   5.055   1.145  0.50 19.15     0.001 A 
INPUT-LIGAND-PDBQT: HETATM   35  C9 A3TL A 101      17.169   4.021   0.589  0.50 18.66     0.007 A 
INPUT-LIGAND-PDBQT: ENDBRANCH  29  30
INPUT-LIGAND-PDBQT: ENDBRANCH   2  29
INPUT-LIGAND-PDBQT: ENDBRANCH   1   2
INPUT-LIGAND-PDBQT: BRANCH   1  36
INPUT-LIGAND-PDBQT: HETATM   36  O1 A3TL A 101      21.246   0.586   0.908  0.50 19.08    -0.391 OA
INPUT-LIGAND-PDBQT: ATOM     37  H1 A3TL A 101      21.813  -0.095   0.565  1.00  0.00     0.210 HD
INPUT-LIGAND-PDBQT: ENDBRANCH   1  36
INPUT-LIGAND-PDBQT: BRANCH   1  38
INPUT-LIGAND-PDBQT: HETATM   38  C52A3TL A 101      19.626  -1.112   1.070  0.50 17.81     0.171 C 
INPUT-LIGAND-PDBQT: BRANCH  38  39
INPUT-LIGAND-PDBQT: HETATM   39  C51A3TL A 101      18.402  -1.795   0.478  0.50 19.18     0.120 C 
INPUT-LIGAND-PDBQT: BRANCH  39  40
INPUT-LIGAND-PDBQT: HETATM   40  C53A3TL A 101      18.440  -3.243   0.991  0.50 21.51     0.066 C 
INPUT-LIGAND-PDBQT: BRANCH  40  41
INPUT-LIGAND-PDBQT: HETATM   41  C54A3TL A 101      17.318  -4.104   0.464  0.50 23.32    -0.056 A 
INPUT-LIGAND-PDBQT: HETATM   42  C55A3TL A 101      17.379  -4.674  -0.809  0.50 24.17     0.007 A 
INPUT-LIGAND-PDBQT: HETATM   43  C56A3TL A 101      16.344  -5.480  -1.288  0.50 23.81     0.001 A 
INPUT-LIGAND-PDBQT: HETATM   44  C57A3TL A 101      15.248  -5.711  -0.460  0.50 25.32     0.000 A 
INPUT-LIGAND-PDBQT: HETATM   45  C58A3TL A 101      15.188  -5.145   0.820  0.50 25.53     0.001 A 
INPUT-LIGAND-PDBQT: HETATM   46  C59A3TL A 101      16.226  -4.347   1.286  0.50 23.73     0.007 A 
INPUT-LIGAND-PDBQT: ENDBRANCH  40  41
INPUT-LIGAND-PDBQT: ENDBRANCH  39  40
INPUT-LIGAND-PDBQT: BRANCH  39  47
INPUT-LIGAND-PDBQT: HETATM   47  N51A3TL A 101      18.446  -1.728  -0.984  0.50 18.23    -0.352 N 
INPUT-LIGAND-PDBQT: HETATM   48  C61A3TL A 101      17.518  -1.186  -1.776  0.50 17.43     0.241 C 
INPUT-LIGAND-PDBQT: HETATM   49  O52A3TL A 101      16.481  -0.711  -1.351  0.50 15.39    -0.271 OA
INPUT-LIGAND-PDBQT: ATOM     50  H51A3TL A 101      19.263  -2.134  -1.440  1.00  0.00     0.163 HD
INPUT-LIGAND-PDBQT: BRANCH  48  51
INPUT-LIGAND-PDBQT: HETATM   51  C60A3TL A 101      17.818  -1.207  -3.257  0.50 17.59     0.180 C 
INPUT-LIGAND-PDBQT: BRANCH  51  52
INPUT-LIGAND-PDBQT: HETATM   52  N52A3TL A 101      17.123  -2.313  -3.905  0.50 18.41    -0.346 N 
INPUT-LIGAND-PDBQT: HETATM   53  C69A3TL A 101      17.676  -3.199  -4.734  0.50 18.83     0.240 C 
INPUT-LIGAND-PDBQT: HETATM   54  O54A3TL A 101      18.865  -3.180  -5.027  0.50 17.30    -0.271 OA
INPUT-LIGAND-PDBQT: ATOM     55  H52A3TL A 101      16.128  -2.418  -3.707  1.00  0.00     0.163 HD
INPUT-LIGAND-PDBQT: BRANCH  53  56
INPUT-LIGAND-PDBQT: HETATM   56  C68A3TL A 101      16.723  -4.226  -5.321  0.50 18.83     0.174 C 
INPUT-LIGAND-PDBQT: HETATM   57  C70A3TL A 101      17.101  -5.625  -4.854  0.50 18.86     0.042 C 
INPUT-LIGAND-PDBQT: BRANCH  56  58
INPUT-LIGAND-PDBQT: HETATM   58  N54A3TL A 101      16.739  -4.172  -6.766  0.50 20.23    -0.324 N 
INPUT-LIGAND-PDBQT: HETATM   59  C81A3TL A 101      15.722  -4.451  -7.580  0.50 20.21     0.361 C 
INPUT-LIGAND-PDBQT: HETATM   60  O58A3TL A 101      14.547  -4.218  -7.356  0.50 23.06    -0.238 OA
INPUT-LIGAND-PDBQT: ATOM     61  H54A3TL A 101      17.616  -3.893  -7.206  1.00  0.00     0.165 HD
INPUT-LIGAND-PDBQT: BRANCH  59  62
INPUT-LIGAND-PDBQT: HETATM   62  O59A3TL A 101      16.062  -5.078  -8.829  0.50 20.81    -0.299 OA
INPUT-LIGAND-PDBQT: BRANCH  62  63
INPUT-LIGAND-PDBQT: HETATM   63  CA5A3TL A 101      15.085  -5.424  -9.819  0.50 21.39     0.219 C 
INPUT-LIGAND-PDBQT: BRANCH  63  64
INPUT-LIGAND-PDBQT: HETATM   64  C50A3TL A 101      14.195  -6.571  -9.390  0.50 21.65    -0.034 A 
INPUT-LIGAND-PDBQT: HETATM   65  C63A3TL A 101      13.046  -6.866 -10.141  0.50 22.01     0.009 A 
INPUT-LIGAND-PDBQT: HETATM   66  C64A3TL A 101      12.195  -7.908  -9.767  0.50 20.63     0.001 A 
INPUT-LIGAND-PDBQT: HETATM   67  C65A3TL A 101      12.508  -8.663  -8.639  0.50 22.28     0.000 A 
INPUT-LIGAND-PDBQT: HETATM   68  C66A3TL A 101      13.648  -8.378  -7.884  0.50 22.78     0.001 A 
INPUT-LIGAND-PDBQT: HETATM   69  C67A3TL A 101      14.493  -7.330  -8.262  0.50 21.34     0.009 A 
INPUT-LIGAND-PDBQT: ENDBRANCH  63  64
INPUT-LIGAND-PDBQT: ENDBRANCH  62  63
INPUT-LIGAND-PDBQT: ENDBRANCH  59  62
INPUT-LIGAND-PDBQT: ENDBRANCH  56  58
INPUT-LIGAND-PDBQT: ENDBRANCH  53  56
INPUT-LIGAND-PDBQT: ENDBRANCH  51  52
INPUT-LIGAND-PDBQT: BRANCH  51  70
INPUT-LIGAND-PDBQT: HETATM   70  C62A3TL A 101      17.431   0.109  -3.936  0.50 19.58     0.009 C 
INPUT-LIGAND-PDBQT: HETATM   71  CG5A3TL A 101      18.163   1.314  -3.341  0.50 18.69     0.012 C 
INPUT-LIGAND-PDBQT: HETATM   72  CG6A3TL A 101      17.689   0.049  -5.434  0.50 18.63     0.012 C 
INPUT-LIGAND-PDBQT: ENDBRANCH  51  70
INPUT-LIGAND-PDBQT: ENDBRANCH  48  51
INPUT-LIGAND-PDBQT: ENDBRANCH  39  47
INPUT-LIGAND-PDBQT: ENDBRANCH  38  39
INPUT-LIGAND-PDBQT: BRANCH  38  73
INPUT-LIGAND-PDBQT: HETATM   73  O51A3TL A 101      20.731  -1.910   0.710  0.50 16.89    -0.391 OA
INPUT-LIGAND-PDBQT: ATOM     74  H51A3TL A 101      20.550  -2.787   1.028  1.00  0.00     0.210 HD
INPUT-LIGAND-PDBQT: ENDBRANCH  38  73
INPUT-LIGAND-PDBQT: ENDBRANCH   1  38
INPUT-LIGAND-PDBQT: TORSDOF 27
________________________________________________________________________________

Total charge on ligand                               =	+0.004 e
REMARK  27 active torsions:
REMARK  status: ('A' for Active; 'I' for Inactive)
REMARK    1  A    between atoms: CA@A_1  and  C@A_3 
REMARK    2  A    between atoms: CA@A_1  and  O9@A_28 
REMARK    3  A    between atoms: CA5@A_2  and  C50@A_41 
REMARK    4  A    between atoms: CA5@A_2  and  O59@A_62 
REMARK    5  A    between atoms: C1@A_8  and  N1@A_9 
REMARK    6  A    between atoms: C1@A_8  and  C3@A_17 
REMARK    7  A    between atoms: C1@A_8  and  C2@A_13 
REMARK       I    between atoms: N1@A_9  and  C11@A_30 
REMARK    8  A    between atoms: O1@A_11  and  C2@A_13 
REMARK    9  A    between atoms: C2@A_13  and  C52@A_47 
REMARK   10  A    between atoms: N2@A_14  and  C10@A_29 
REMARK       I    between atoms: N2@A_14  and  C19@A_38 
REMARK   11  A    between atoms: C3@A_17  and  C4@A_18 
REMARK   12  A    between atoms: N4@A_19  and  C18@A_37 
REMARK       I    between atoms: N4@A_19  and  C31@A_40 
REMARK   13  A    between atoms: O9@A_28  and  C31@A_40 
REMARK   14  A    between atoms: C10@A_29  and  C11@A_30 
REMARK   15  A    between atoms: C10@A_29  and  C12@A_31 
REMARK   16  A    between atoms: C18@A_37  and  C19@A_38 
REMARK   17  A    between atoms: C51@A_42  and  C52@A_47 
REMARK   18  A    between atoms: C51@A_42  and  C53@A_51 
REMARK   19  A    between atoms: C51@A_42  and  N51@A_43 
REMARK       I    between atoms: N51@A_43  and  C61@A_64 
REMARK   20  A    between atoms: O51@A_45  and  C52@A_47 
REMARK   21  A    between atoms: N52@A_48  and  C60@A_63 
REMARK       I    between atoms: N52@A_48  and  C69@A_72 
REMARK   22  A    between atoms: C53@A_51  and  C54@A_52 
REMARK   23  A    between atoms: N54@A_53  and  C68@A_71 
REMARK       I    between atoms: N54@A_53  and  C81@A_74 
REMARK   24  A    between atoms: O59@A_62  and  C81@A_74 
REMARK   25  A    between atoms: C60@A_63  and  C61@A_64 
REMARK   26  A    between atoms: C60@A_63  and  C62@A_65 
REMARK   27  A    between atoms: C68@A_71  and  C69@A_72 


Number of Rotatable Bonds in Small Molecule =	27 torsions
Number of atoms in ligand:  74

Number of non-hydrogen atoms in ligand:  66

Number of vibrational degrees of freedom of ligand:  216


Number of torsional degrees of freedom = 27
Estimated loss of torsional free energy upon binding = +8.0541 kcal/mol


DPF> about 17.085 -0.070 0.744            # small molecule center

Small molecule center of rotation =	(+17.085, -0.070, +0.744)

DPF> tran0 random                         # initial coordinates/A or random

Initial translation =			(15.909, 5.959, -3.335) Angstroms
DPF> quaternion0 random                   # initial orientation

Each run will begin with a new, random initial orientation.
Initial quaternion,  (x,y,z,w) =	( -0.129, -0.835, -0.394, -0.362 ),
DPF> dihe0 random                         # initial dihedrals (relative) or random

DPF> torsdof 27                            # torsional degrees of freedom

Number of torsional degrees of freedom = 27
Free energy coefficient for torsional degrees of freedom = 0.2983, the factory default value.

Estimated loss of torsional free energy upon binding = +8.0541 kcal/mol

DPF> rmstol 2.0                           # cluster_tolerance/A

Maximum RMS tolerance for conformational cluster analysis = 2.00 Angstroms
DPF> extnrg 1000.0                        # external grid energy

External grid energy (beyond grid map walls) = 1000.00

DPF> e0max 0.0 10000                      # max initial energy; max number of retries

Using user-specified maximum number of retries for simanneal initialization, 10000 retries.
If the simanneal initial energy is greater than e0max, 0.000,
then a new, random initial state will be created.

DPF> ga_pop_size 150                      # number of individuals in population

A population of 150 individuals will be used
DPF> ga_num_evals 2500000                 # maximum number of energy evaluations

There will be at most 2500000 function evaluations used.
DPF> ga_num_generations 27000             # maximum number of generations

The GA will run for at most 27000 generations.
DPF> ga_elitism 1                         # number of top individuals to survive to next generation

The 1 best will be preserved each GA generation.
DPF> ga_mutation_rate 0.02                # rate of gene mutation

The mutation rate is 0.020000.
DPF> ga_crossover_rate 0.8                # rate of crossover

The crossover rate is 0.800000.
DPF> ga_window_size 10                    # 

The GA's selection window is 10 generations.
DPF> ga_cauchy_alpha 0.0                  # Alpha parameter of Cauchy distribution

The alpha parameter (for the Cauchy distribution) is being set to 0.000000.
DPF> ga_cauchy_beta 1.0                   # Beta parameter Cauchy distribution

The beta parameter (for the Cauchy distribution) is being set to 1.000000.
DPF> set_ga                               # set the above parameters for GA or LGA

DPF> sw_max_its 300                       # iterations of Solis & Wets local search

Solis & Wets algorithms will perform at most 300 iterations.
DPF> sw_max_succ 4                        # consecutive successes before changing rho

Solis & Wets algorithms expand rho every 4 in a row successes.
DPF> sw_max_fail 4                        # consecutive failures before changing rho

Solis & Wets algorithms contract rho every 4 in a row failures.
DPF> sw_rho 1.0                           # size of local search space to sample

rho is set to 1.000000.
DPF> sw_lb_rho 0.01                       # lower bound on rho

rho will never get smaller than 0.010000.
DPF> ls_search_freq 0.06                  # probability of performing local search on individual

Local search will be performed with frequency 0.060000.
DPF> set_psw1                             # set the above pseudo-Solis & Wets parameters

Creating a new Local Search object using the pseudo-Solis-Wets algorithm (pSW1) with the current settings.

DPF> unbound_model bound                  # state of unbound ligand

DPF> ga_run 10                            # do this many hybrid GA-LS runs

centering ligand on specified point: 17.085 -0.070 0.744
Furthest true ligand atom from "about" center is 13.994 Angstroms (maxrad).
Number of requested GA dockings = 10 runs
Unbound model to be used is 'same as bound' [AutoDock 4.2 default].

	BEGINNING GENETIC ALGORITHM DOCKING 1 of 10
Run: 1 Seed: 1225919560 1305963993 [ Run 1 of 10 GA/GALS ]
Beginning LAMARCKIAN GENETIC ALGORITHM (LGA), with a maximum of 2500000 energy evaluations.

Final-Value: -6.638


	FINAL GENETIC ALGORITHM DOCKED STATE
	_______________________________________________


Detailed state:  trans 18.233 0.189 0.219 quatxyzw -0.126070 0.927038 0.352918 0.012507 center 17.085 -0.070 0.744 ntor 27 104.5903 82.5729 -129.5071 179.9400 175.4188 10.5519 -148.5469 158.0460 -73.5964 -17.3865 39.2829 4.9294 90.1192 161.7088 68.8045 59.4165 179.9858 -97.4780 107.2396 -33.6161 180.0000 -3.4984 160.2177 -179.9431 -150.0104 90.9970 -67.0039
State:	 18.233   0.189   0.219  -0.126  0.927  0.353 178.567    104.59   82.57 -129.51  179.94  175.42   10.55 -148.55  158.05  -73.60  -17.39   39.28    4.93   90.12  161.71   68.80   59.42  179.99  -97.48  107.24  -33.62  180.00   -3.50  160.22 -179.94 -150.01   91.00  -67.00

DOCKED: MODEL        1
DOCKED: USER    Run = 1
DOCKED: USER    DPF = dock.dpf
DOCKED: USER  
DOCKED: USER    Estimated Free Energy of Binding    =   +1.71 kcal/mol  [=(1)+(2)+(3)-(4)]
DOCKED: USER    
DOCKED: USER    (1) Final Intermolecular Energy     =   -6.34 kcal/mol
DOCKED: USER        vdW + Hbond + desolv Energy     =   -6.31 kcal/mol
DOCKED: USER        Electrostatic Energy            =   -0.03 kcal/mol
DOCKED: USER    (2) Final Total Internal Energy     =   -0.29 kcal/mol
DOCKED: USER    (3) Torsional Free Energy           =   +8.05 kcal/mol
DOCKED: USER    (4) Unbound System's Energy  [=(2)] =   -0.29 kcal/mol
DOCKED: USER    
DOCKED: USER    
DOCKED: USER    NEWDPF move lig2p3b.pdbqt
DOCKED: USER    NEWDPF about 17.085000 -0.070000 0.744000
DOCKED: USER    NEWDPF tran0 18.232608 0.188986 0.218944
DOCKED: USER    NEWDPF quaternion0 -0.126070 0.927038 0.352918 0.012507
DOCKED: USER    NEWDPF axisangle0 -0.126080 0.927110 0.352946 178.566736
DOCKED: USER    NEWDPF quat0 -0.126080 0.927110 0.352946 178.566736
DOCKED: USER    NEWDPF dihe0 104.59 82.57 -129.51 179.94 175.42 10.55 -148.55 158.05 -73.60 -17.39 39.28 4.93 90.12 161.71 68.80 59.42 179.99 -97.48 107.24 -33.62 180.00 -3.50 160.22 -179.94 -150.01 91.00 -67.00 
DOCKED: USER  keepresnum = 1 
DOCKED: USER  
DOCKED: REMARK  27 active torsions:
DOCKED: REMARK  status: ('A' for Active; 'I' for Inactive)
DOCKED: REMARK    1  A    between atoms: CA@A_1  and  C@A_3 
DOCKED: REMARK    2  A    between atoms: CA@A_1  and  O9@A_28 
DOCKED: REMARK    3  A    between atoms: CA5@A_2  and  C50@A_41 
DOCKED: REMARK    4  A    between atoms: CA5@A_2  and  O59@A_62 
DOCKED: REMARK    5  A    between atoms: C1@A_8  and  N1@A_9 
DOCKED: REMARK    6  A    between atoms: C1@A_8  and  C3@A_17 
DOCKED: REMARK    7  A    between atoms: C1@A_8  and  C2@A_13 
DOCKED: REMARK       I    between atoms: N1@A_9  and  C11@A_30 
DOCKED: REMARK    8  A    between atoms: O1@A_11  and  C2@A_13 
DOCKED: REMARK    9  A    between atoms: C2@A_13  and  C52@A_47 
DOCKED: REMARK   10  A    between atoms: N2@A_14  and  C10@A_29 
DOCKED: REMARK       I    between atoms: N2@A_14  and  C19@A_38 
DOCKED: REMARK   11  A    between atoms: C3@A_17  and  C4@A_18 
DOCKED: REMARK   12  A    between atoms: N4@A_19  and  C18@A_37 
DOCKED: REMARK       I    between atoms: N4@A_19  and  C31@A_40 
DOCKED: REMARK   13  A    between atoms: O9@A_28  and  C31@A_40 
DOCKED: REMARK   14  A    between atoms: C10@A_29  and  C11@A_30 
DOCKED: REMARK   15  A    between atoms: C10@A_29  and  C12@A_31 
DOCKED: REMARK   16  A    between atoms: C18@A_37  and  C19@A_38 
DOCKED: REMARK   17  A    between atoms: C51@A_42  and  C52@A_47 
DOCKED: REMARK   18  A    between atoms: C51@A_42  and  C53@A_51 
DOCKED: REMARK   19  A    between atoms: C51@A_42  and  N51@A_43 
DOCKED: REMARK       I    between atoms: N51@A_43  and  C61@A_64 
DOCKED: REMARK   20  A    between atoms: O51@A_45  and  C52@A_47 
DOCKED: REMARK   21  A    between atoms: N52@A_48  and  C60@A_63 
DOCKED: REMARK       I    between atoms: N52@A_48  and  C69@A_72 
DOCKED: REMARK   22  A    between atoms: C53@A_51  and  C54@A_52 
DOCKED: REMARK   23  A    between atoms: N54@A_53  and  C68@A_71 
DOCKED: REMARK       I    between atoms: N54@A_53  and  C81@A_74 
DOCKED: REMARK   24  A    between atoms: O59@A_62  and  C81@A_74 
DOCKED: REMARK   25  A    between atoms: C60@A_63  and  C61@A_64 
DOCKED: REMARK   26  A    between atoms: C60@A_63  and  C62@A_65 
DOCKED: REMARK   27  A    between atoms: C68@A_71  and  C69@A_72 
DOCKED: USER                              x       y       z     vdW  Elec       q    Type
DOCKED: USER                           _______ _______ _______ _____ _____    ______ ____
DOCKED: ROOT
DOCKED: ATOM      1  C2 A3TL A 101      15.429  -0.352   0.416 +0.06 +0.07    +0.171 C 
DOCKED: ENDROOT
DOCKED: BRANCH   1   2
DOCKED: ATOM      2  C1 A3TL A 101      16.006   1.020   0.784 +0.05 +0.04    +0.120 C 
DOCKED: BRANCH   2   3
DOCKED: ATOM      3  N1 A3TL A 101      17.227   0.907   1.595 -0.09 +0.04    -0.352 N 
DOCKED: ATOM      4  C11A3TL A 101      18.241   0.083   1.298 -0.15 -0.10    +0.241 C 
DOCKED: ATOM      5  O2 A3TL A 101      18.182  -0.741   0.391 -0.11 +0.10    -0.271 OA
DOCKED: ATOM      6  H1 A3TL A 101      17.306   1.488   2.431 +0.09 -0.02    +0.163 HD
DOCKED: BRANCH   4   7
DOCKED: ATOM      7  C10A3TL A 101      19.483   0.202   2.146 -0.30 -0.16    +0.180 C 
DOCKED: BRANCH   7   8
DOCKED: ATOM      8  N2 A3TL A 101      20.172   1.459   1.927 -0.06 +0.37    -0.346 N 
DOCKED: ATOM      9  C19A3TL A 101      19.948   2.222   0.853 -0.27 -0.25    +0.240 C 
DOCKED: ATOM     10  O4 A3TL A 101      19.326   1.823  -0.122 -0.24 +0.25    -0.271 OA
DOCKED: ATOM     11  H2 A3TL A 101      20.853   1.773   2.619 +0.13 -0.22    +0.163 HD
DOCKED: BRANCH   9  12
DOCKED: ATOM     12  C18A3TL A 101      20.518   3.620   0.916 -0.30 -0.15    +0.174 C 
DOCKED: ATOM     13  C20A3TL A 101      22.010   3.575   0.641 +3.55 -0.06    +0.042 C 
DOCKED: BRANCH  12  14
DOCKED: ATOM     14  N4 A3TL A 101      20.251   4.324   2.157 +0.11 +0.16    -0.324 N 
DOCKED: ATOM     15  C31A3TL A 101      19.042   4.227   2.722 -0.08 -0.10    +0.361 C 
DOCKED: ATOM     16  O8 A3TL A 101      18.189   3.468   2.320 -0.15 +0.05    -0.238 OA
DOCKED: ATOM     17  H4 A3TL A 101      20.979   4.889   2.595 -0.30 -0.07    +0.165 HD
DOCKED: BRANCH  15  18
DOCKED: ATOM     18  O9 A3TL A 101      18.730   5.035   3.880 -0.11 +0.03    -0.299 OA
DOCKED: BRANCH  18  19
DOCKED: ATOM     19  CA A3TL A 101      18.708   4.516   5.224 -0.22 -0.05    +0.219 C 
DOCKED: BRANCH  19  20
DOCKED: ATOM     20  C  A3TL A 101      17.640   5.110   6.138 -0.22 +0.01    -0.034 A 
DOCKED: ATOM     21  C13A3TL A 101      16.948   6.262   5.729 -0.18 +0.00    +0.009 A 
DOCKED: ATOM     22  C14A3TL A 101      15.951   6.838   6.519 -0.16 +0.00    +0.001 A 
DOCKED: ATOM     23  C15A3TL A 101      15.648   6.274   7.754 -0.19 +0.00    +0.000 A 
DOCKED: ATOM     24  C16A3TL A 101      16.322   5.129   8.173 -0.25 -0.00    +0.001 A 
DOCKED: ATOM     25  C17A3TL A 101      17.312   4.554   7.366 -0.25 -0.00    +0.009 A 
DOCKED: ENDBRANCH  19  20
DOCKED: ENDBRANCH  18  19
DOCKED: ENDBRANCH  15  18
DOCKED: ENDBRANCH  12  14
DOCKED: ENDBRANCH   9  12
DOCKED: ENDBRANCH   7   8
DOCKED: BRANCH   7  26
DOCKED: ATOM     26  C12A3TL A 101      19.204   0.051   3.654 -0.43 -0.01    +0.009 C 
DOCKED: ATOM     27  CG1A3TL A 101      18.669   1.336   4.279 -0.35 -0.00    +0.012 C 
DOCKED: ATOM     28  CG2A3TL A 101      18.205  -1.055   3.946 -0.48 -0.00    +0.012 C 
DOCKED: ENDBRANCH   7  26
DOCKED: ENDBRANCH   4   7
DOCKED: ENDBRANCH   2   3
DOCKED: BRANCH   2  29
DOCKED: ATOM     29  C3 A3TL A 101      16.225   1.834  -0.500 +0.04 +0.01    +0.066 C 
DOCKED: BRANCH  29  30
DOCKED: ATOM     30  C4 A3TL A 101      16.488   3.283  -0.177 -0.30 -0.00    -0.056 A 
DOCKED: ATOM     31  C5 A3TL A 101      17.764   3.829  -0.352 -0.01 -0.00    +0.007 A 
DOCKED: ATOM     32  C6 A3TL A 101      18.004   5.176  -0.056 +0.04 -0.00    +0.001 A 
DOCKED: ATOM     33  C7 A3TL A 101      16.966   5.968   0.441 +0.13 +0.00    +0.000 A 
DOCKED: ATOM     34  C8 A3TL A 101      15.697   5.410   0.627 -0.46 +0.00    +0.001 A 
DOCKED: ATOM     35  C9 A3TL A 101      15.450   4.077   0.313 +0.19 +0.00    +0.007 A 
DOCKED: ENDBRANCH  29  30
DOCKED: ENDBRANCH   2  29
DOCKED: ENDBRANCH   1   2
DOCKED: BRANCH   1  36
DOCKED: ATOM     36  O1 A3TL A 101      14.039  -0.242   0.253 +0.35 -0.15    -0.391 OA
DOCKED: ATOM     37  H1 A3TL A 101      13.628  -0.175   1.108 -0.08 +0.04    +0.210 HD
DOCKED: ENDBRANCH   1  36
DOCKED: BRANCH   1  38
DOCKED: ATOM     38  C52A3TL A 101      15.971  -0.964  -0.878 +0.27 +0.03    +0.171 C 
DOCKED: BRANCH  38  39
DOCKED: ATOM     39  C51A3TL A 101      17.142  -0.235  -1.519 -0.31 -0.01    +0.120 C 
DOCKED: BRANCH  39  40
DOCKED: ATOM     40  C53A3TL A 101      16.532   0.668  -2.603 -0.28 -0.00    +0.066 C 
DOCKED: BRANCH  40  41
DOCKED: ATOM     41  C54A3TL A 101      17.324   0.694  -3.888 -0.40 +0.01    -0.056 A 
DOCKED: ATOM     42  C55A3TL A 101      18.591   1.277  -3.947 -0.53 -0.00    +0.007 A 
DOCKED: ATOM     43  C56A3TL A 101      19.325   1.288  -5.135 -0.40 -0.00    +0.001 A 
DOCKED: ATOM     44  C57A3TL A 101      18.765   0.694  -6.263 -0.53 -0.00    +0.000 A 
DOCKED: ATOM     45  C58A3TL A 101      17.497   0.103  -6.205 -0.50 -0.00    +0.001 A 
DOCKED: ATOM     46  C59A3TL A 101      16.778   0.096  -5.016 -0.49 -0.00    +0.007 A 
DOCKED: ENDBRANCH  40  41
DOCKED: ENDBRANCH  39  40
DOCKED: BRANCH  39  47
DOCKED: ATOM     47  N51A3TL A 101      18.092  -1.200  -2.077 -0.08 +0.10    -0.352 N 
DOCKED: ATOM     48  C61A3TL A 101      17.821  -2.132  -2.994 -0.19 -0.06    +0.241 C 
DOCKED: ATOM     49  O52A3TL A 101      16.705  -2.309  -3.447 +0.80 +0.12    -0.271 OA
DOCKED: ATOM     50  H51A3TL A 101      19.051  -1.156  -1.732 +0.08 -0.09    +0.163 HD
DOCKED: BRANCH  48  51
DOCKED: ATOM     51  C60A3TL A 101      18.988  -2.983  -3.438 -0.18 -0.06    +0.180 C 
DOCKED: BRANCH  51  52
DOCKED: ATOM     52  N52A3TL A 101      19.029  -4.230  -2.683 -0.07 +0.09    -0.346 N 
DOCKED: ATOM     53  C69A3TL A 101      20.071  -5.059  -2.609 -0.08 -0.05    +0.240 C 
DOCKED: ATOM     54  O54A3TL A 101      21.136  -4.837  -3.171 +0.51 +0.12    -0.271 OA
DOCKED: ATOM     55  H52A3TL A 101      18.188  -4.490  -2.168 +0.09 -0.02    +0.163 HD
DOCKED: BRANCH  53  56
DOCKED: ATOM     56  C68A3TL A 101      19.841  -6.324  -1.799 -0.30 +0.03    +0.174 C 
DOCKED: ATOM     57  C70A3TL A 101      20.624  -7.484  -2.398 -0.35 +0.03    +0.042 C 
DOCKED: BRANCH  56  58
DOCKED: ATOM     58  N54A3TL A 101      18.434  -6.655  -1.755 -0.09 -0.06    -0.324 N 
DOCKED: ATOM     59  C81A3TL A 101      17.552  -6.245  -0.845 -0.03 +0.04    +0.361 C 
DOCKED: ATOM     60  O58A3TL A 101      17.547  -5.154  -0.300 -0.21 -0.00    -0.238 OA
DOCKED: ATOM     61  H54A3TL A 101      18.081  -7.263  -2.494 +0.08 +0.06    +0.165 HD
DOCKED: BRANCH  59  62
DOCKED: ATOM     62  O59A3TL A 101      16.522  -7.183  -0.491 -0.22 -0.06    -0.299 OA
DOCKED: BRANCH  62  63
DOCKED: ATOM     63  CA5A3TL A 101      16.196  -8.324  -1.296 -0.09 +0.06    +0.219 C 
DOCKED: BRANCH  63  64
DOCKED: ATOM     64  C50A3TL A 101      15.632  -7.946  -2.649 -0.17 -0.01    -0.034 A 
DOCKED: ATOM     65  C63A3TL A 101      14.847  -6.787  -2.766 -0.25 +0.00    +0.009 A 
DOCKED: ATOM     66  C64A3TL A 101      14.300  -6.415  -3.996 -0.29 +0.00    +0.001 A 
DOCKED: ATOM     67  C65A3TL A 101      14.552  -7.207  -5.114 -0.19 +0.00    +0.000 A 
DOCKED: ATOM     68  C66A3TL A 101      15.331  -8.362  -5.009 -0.10 +0.00    +0.001 A 
DOCKED: ATOM     69  C67A3TL A 101      15.872  -8.730  -3.773 -0.13 +0.00    +0.009 A 
DOCKED: ENDBRANCH  63  64
DOCKED: ENDBRANCH  62  63
DOCKED: ENDBRANCH  59  62
DOCKED: ENDBRANCH  56  58
DOCKED: ENDBRANCH  53  56
DOCKED: ENDBRANCH  51  52
DOCKED: BRANCH  51  70
DOCKED: ATOM     70  C62A3TL A 101      18.932  -3.292  -4.936 -0.39 -0.00    +0.009 C 
DOCKED: ATOM     71  CG5A3TL A 101      18.884  -4.794  -5.224 +0.13 -0.01    +0.012 C 
DOCKED: ATOM     72  CG6A3TL A 101      17.739  -2.612  -5.591 -0.40 -0.00    +0.012 C 
DOCKED: ENDBRANCH  51  70
DOCKED: ENDBRANCH  48  51
DOCKED: ENDBRANCH  39  47
DOCKED: ENDBRANCH  38  39
DOCKED: BRANCH  38  73
DOCKED: ATOM     73  O51A3TL A 101      16.444  -2.252  -0.552 -0.12 -0.05    -0.391 OA
DOCKED: ATOM     74  H51A3TL A 101      17.382  -2.174  -0.422 +0.12 -0.02    +0.210 HD
DOCKED: ENDBRANCH  38  73
DOCKED: ENDBRANCH   1  38
DOCKED: TORSDOF 27
DOCKED: TER
DOCKED: ENDMDL
________________________________________________________________________________


	BEGINNING GENETIC ALGORITHM DOCKING 2 of 10
Run: 2 Seed: 1069218049 1724712002 [ Run 2 of 10 GA/GALS ]
Beginning LAMARCKIAN GENETIC ALGORITHM (LGA), with a maximum of 2500000 energy evaluations.

Final-Value: -11.653


	FINAL GENETIC ALGORITHM DOCKED STATE
	_______________________________________________


Detailed state:  trans 17.939 2.212 -2.538 quatxyzw 0.498996 -0.110761 0.857203 0.062758 center 17.085 -0.070 0.744 ntor 27 73.1254 84.1867 139.9409 8.9772 5.5306 -140.5991 84.2111 -180.0000 -99.9614 -65.6075 -85.9023 155.0018 -98.8634 -100.4348 -179.9071 -168.8901 62.8368 170.7247 168.4060 -134.4833 99.8841 100.9447 175.9739 -120.8638 53.8216 -174.9234 -149.9379
State:	 17.939   2.212  -2.538   0.500 -0.111  0.859 172.804     73.13   84.19  139.94    8.98    5.53 -140.60   84.21 -180.00  -99.96  -65.61  -85.90  155.00  -98.86 -100.43 -179.91 -168.89   62.84  170.72  168.41 -134.48   99.88  100.94  175.97 -120.86   53.82 -174.92 -149.94

DOCKED: MODEL        2
DOCKED: USER    Run = 2
DOCKED: USER    DPF = dock.dpf
DOCKED: USER  
DOCKED: USER    Estimated Free Energy of Binding    =   -3.00 kcal/mol  [=(1)+(2)+(3)-(4)]
DOCKED: USER    Estimated Inhibition Constant, Ki   =    6.28 mM (millimolar)  [Temperature = 298.15 K]
DOCKED: USER    
DOCKED: USER    (1) Final Intermolecular Energy     =  -11.06 kcal/mol
DOCKED: USER        vdW + Hbond + desolv Energy     =  -10.86 kcal/mol
DOCKED: USER        Electrostatic Energy            =   -0.20 kcal/mol
DOCKED: USER    (2) Final Total Internal Energy     =   -0.60 kcal/mol
DOCKED: USER    (3) Torsional Free Energy           =   +8.05 kcal/mol
DOCKED: USER    (4) Unbound System's Energy  [=(2)] =   -0.60 kcal/mol
DOCKED: USER    
DOCKED: USER    
DOCKED: USER    NEWDPF move lig2p3b.pdbqt
DOCKED: USER    NEWDPF about 17.085000 -0.070000 0.744000
DOCKED: USER    NEWDPF tran0 17.938935 2.211602 -2.537926
DOCKED: USER    NEWDPF quaternion0 0.498996 -0.110761 0.857203 0.062758
DOCKED: USER    NEWDPF axisangle0 0.499981 -0.110980 0.858896 172.803738
DOCKED: USER    NEWDPF quat0 0.499981 -0.110980 0.858896 172.803738
DOCKED: USER    NEWDPF dihe0 73.13 84.19 139.94 8.98 5.53 -140.60 84.21 -180.00 -99.96 -65.61 -85.90 155.00 -98.86 -100.43 -179.91 -168.89 62.84 170.72 168.41 -134.48 99.88 100.94 175.97 -120.86 53.82 -174.92 -149.94 
DOCKED: USER  keepresnum = 1 
DOCKED: USER  
DOCKED: REMARK  27 active torsions:
DOCKED: REMARK  status: ('A' for Active; 'I' for Inactive)
DOCKED: REMARK    1  A    between atoms: CA@A_1  and  C@A_3 
DOCKED: REMARK    2  A    between atoms: CA@A_1  and  O9@A_28 
DOCKED: REMARK    3  A    between atoms: CA5@A_2  and  C50@A_41 
DOCKED: REMARK    4  A    between atoms: CA5@A_2  and  O59@A_62 
DOCKED: REMARK    5  A    between atoms: C1@A_8  and  N1@A_9 
DOCKED: REMARK    6  A    between atoms: C1@A_8  and  C3@A_17 
DOCKED: REMARK    7  A    between atoms: C1@A_8  and  C2@A_13 
DOCKED: REMARK       I    between atoms: N1@A_9  and  C11@A_30 
DOCKED: REMARK    8  A    between atoms: O1@A_11  and  C2@A_13 
DOCKED: REMARK    9  A    between atoms: C2@A_13  and  C52@A_47 
DOCKED: REMARK   10  A    between atoms: N2@A_14  and  C10@A_29 
DOCKED: REMARK       I    between atoms: N2@A_14  and  C19@A_38 
DOCKED: REMARK   11  A    between atoms: C3@A_17  and  C4@A_18 
DOCKED: REMARK   12  A    between atoms: N4@A_19  and  C18@A_37 
DOCKED: REMARK       I    between atoms: N4@A_19  and  C31@A_40 
DOCKED: REMARK   13  A    between atoms: O9@A_28  and  C31@A_40 
DOCKED: REMARK   14  A    between atoms: C10@A_29  and  C11@A_30 
DOCKED: REMARK   15  A    between atoms: C10@A_29  and  C12@A_31 
DOCKED: REMARK   16  A    between atoms: C18@A_37  and  C19@A_38 
DOCKED: REMARK   17  A    between atoms: C51@A_42  and  C52@A_47 
DOCKED: REMARK   18  A    between atoms: C51@A_42  and  C53@A_51 
DOCKED: REMARK   19  A    between atoms: C51@A_42  and  N51@A_43 
DOCKED: REMARK       I    between atoms: N51@A_43  and  C61@A_64 
DOCKED: REMARK   20  A    between atoms: O51@A_45  and  C52@A_47 
DOCKED: REMARK   21  A    between atoms: N52@A_48  and  C60@A_63 
DOCKED: REMARK       I    between atoms: N52@A_48  and  C69@A_72 
DOCKED: REMARK   22  A    between atoms: C53@A_51  and  C54@A_52 
DOCKED: REMARK   23  A    between atoms: N54@A_53  and  C68@A_71 
DOCKED: REMARK       I    between atoms: N54@A_53  and  C81@A_74 
DOCKED: REMARK   24  A    between atoms: O59@A_62  and  C81@A_74 
DOCKED: REMARK   25  A    between atoms: C60@A_63  and  C61@A_64 
DOCKED: REMARK   26  A    between atoms: C60@A_63  and  C62@A_65 
DOCKED: REMARK   27  A    between atoms: C68@A_71  and  C69@A_72 
DOCKED: USER                              x       y       z     vdW  Elec       q    Type
DOCKED: USER                           _______ _______ _______ _____ _____    ______ ____
DOCKED: ROOT
DOCKED: ATOM      1  C2 A3TL A 101      16.377   1.259  -0.337 -0.26 +0.03    +0.171 C 
DOCKED: ENDROOT
DOCKED: BRANCH   1   2
DOCKED: ATOM      2  C1 A3TL A 101      17.307   0.325  -1.121 -0.31 -0.02    +0.120 C 
DOCKED: BRANCH   2   3
DOCKED: ATOM      3  N1 A3TL A 101      17.658  -0.879  -0.354 -0.06 +0.07    -0.352 N 
DOCKED: ATOM      4  C11A3TL A 101      16.760  -1.790   0.048 -0.22 +0.01    +0.241 C 
DOCKED: ATOM      5  O2 A3TL A 101      15.551  -1.631  -0.082 +0.82 -0.14    -0.271 OA
DOCKED: ATOM      6  H1 A3TL A 101      18.638  -1.029  -0.113 +0.11 -0.08    +0.163 HD
DOCKED: BRANCH   4   7
DOCKED: ATOM      7  C10A3TL A 101      17.304  -3.042   0.691 -0.31 -0.01    +0.180 C 
DOCKED: BRANCH   7   8
DOCKED: ATOM      8  N2 A3TL A 101      16.467  -4.195   0.424 -0.20 -0.03    -0.346 N 
DOCKED: ATOM      9  C19A3TL A 101      15.956  -4.448  -0.784 -0.07 +0.03    +0.240 C 
DOCKED: ATOM     10  O4 A3TL A 101      15.966  -3.625  -1.689 +0.24 -0.01    -0.271 OA
DOCKED: ATOM     11  H2 A3TL A 101      16.260  -4.839   1.189 +0.10 +0.02    +0.163 HD
DOCKED: BRANCH   9  12
DOCKED: ATOM     12  C18A3TL A 101      15.356  -5.822  -0.965 -0.29 +0.03    +0.174 C 
DOCKED: ATOM     13  C20A3TL A 101      16.217  -6.852  -0.258 -0.08 +0.01    +0.042 C 
DOCKED: BRANCH  12  14
DOCKED: ATOM     14  N4 A3TL A 101      15.136  -6.207  -2.348 -0.14 -0.05    -0.324 N 
DOCKED: ATOM     15  C31A3TL A 101      16.187  -6.464  -3.135 -0.08 +0.06    +0.361 C 
DOCKED: ATOM     16  O8 A3TL A 101      17.322  -6.523  -2.717 -0.11 -0.05    -0.238 OA
DOCKED: ATOM     17  H4 A3TL A 101      14.188  -6.281  -2.717 +0.08 +0.03    +0.165 HD
DOCKED: BRANCH  15  18
DOCKED: ATOM     18  O9 A3TL A 101      15.978  -6.711  -4.544 -0.08 -0.06    -0.299 OA
DOCKED: BRANCH  18  19
DOCKED: ATOM     19  CA A3TL A 101      15.531  -5.698  -5.466 -0.18 +0.03    +0.219 C 
DOCKED: BRANCH  19  20
DOCKED: ATOM     20  C  A3TL A 101      15.155  -6.200  -6.858 -0.20 -0.01    -0.034 A 
DOCKED: ATOM     21  C13A3TL A 101      14.665  -5.290  -7.809 -0.30 +0.00    +0.009 A 
DOCKED: ATOM     22  C14A3TL A 101      14.320  -5.693  -9.100 -0.27 +0.00    +0.001 A 
DOCKED: ATOM     23  C15A3TL A 101      14.443  -7.033  -9.453 -0.10 +0.00    +0.000 A 
DOCKED: ATOM     24  C16A3TL A 101      14.931  -7.949  -8.522 -0.06 +0.00    +0.001 A 
DOCKED: ATOM     25  C17A3TL A 101      15.284  -7.530  -7.234 -0.10 +0.00    +0.009 A 
DOCKED: ENDBRANCH  19  20
DOCKED: ENDBRANCH  18  19
DOCKED: ENDBRANCH  15  18
DOCKED: ENDBRANCH  12  14
DOCKED: ENDBRANCH   9  12
DOCKED: ENDBRANCH   7   8
DOCKED: BRANCH   7  26
DOCKED: ATOM     26  C12A3TL A 101      18.746  -3.370   0.254 -0.40 -0.00    +0.009 C 
DOCKED: ATOM     27  CG1A3TL A 101      19.200  -4.745   0.733 -0.34 -0.00    +0.012 C 
DOCKED: ATOM     28  CG2A3TL A 101      18.913  -3.327  -1.255 -0.26 -0.00    +0.012 C 
DOCKED: ENDBRANCH   7  26
DOCKED: ENDBRANCH   4   7
DOCKED: ENDBRANCH   2   3
DOCKED: BRANCH   2  29
DOCKED: ATOM     29  C3 A3TL A 101      16.661  -0.007  -2.475 -0.40 -0.00    +0.066 C 
DOCKED: BRANCH  29  30
DOCKED: ATOM     30  C4 A3TL A 101      17.529   0.470  -3.613 -0.38 +0.01    -0.056 A 
DOCKED: ATOM     31  C5 A3TL A 101      18.151   1.721  -3.555 -0.46 -0.00    +0.007 A 
DOCKED: ATOM     32  C6 A3TL A 101      18.959   2.160  -4.611 -0.48 -0.00    +0.001 A 
DOCKED: ATOM     33  C7 A3TL A 101      19.122   1.348  -5.736 -0.46 -0.00    +0.000 A 
DOCKED: ATOM     34  C8 A3TL A 101      18.484   0.104  -5.792 -0.55 -0.00    +0.001 A 
DOCKED: ATOM     35  C9 A3TL A 101      17.697  -0.343  -4.735 -0.41 -0.00    +0.007 A 
DOCKED: ENDBRANCH  29  30
DOCKED: ENDBRANCH   2  29
DOCKED: ENDBRANCH   1   2
DOCKED: BRANCH   1  36
DOCKED: ATOM     36  O1 A3TL A 101      16.024   0.648   0.877 -0.75 -0.10    -0.391 OA
DOCKED: ATOM     37  H1 A3TL A 101      15.119   0.360   0.830 +0.09 +0.11    +0.210 HD
DOCKED: ENDBRANCH   1  36
DOCKED: BRANCH   1  38
DOCKED: ATOM     38  C52A3TL A 101      16.970   2.624   0.019 -0.33 -0.00    +0.171 C 
DOCKED: BRANCH  38  39
DOCKED: ATOM     39  C51A3TL A 101      17.997   2.631   1.142 -0.28 -0.03    +0.120 C 
DOCKED: BRANCH  39  40
DOCKED: ATOM     40  C53A3TL A 101      18.079   1.181   1.644 -0.26 -0.02    +0.066 C 
DOCKED: BRANCH  40  41
DOCKED: ATOM     41  C54A3TL A 101      19.210   0.389   1.033 -0.28 +0.04    -0.056 A 
DOCKED: ATOM     42  C55A3TL A 101      19.629  -0.822   1.588 -0.34 -0.01    +0.007 A 
DOCKED: ATOM     43  C56A3TL A 101      20.667  -1.557   1.013 +1.62 -0.00    +0.001 A 
DOCKED: ATOM     44  C57A3TL A 101      21.273  -1.058  -0.138 +0.21 -0.00    +0.000 A 
DOCKED: ATOM     45  C58A3TL A 101      20.850   0.154  -0.700 +0.57 -0.00    +0.001 A 
DOCKED: ATOM     46  C59A3TL A 101      19.813   0.874  -0.119 -0.31 -0.01    +0.007 A 
DOCKED: ENDBRANCH  40  41
DOCKED: ENDBRANCH  39  40
DOCKED: BRANCH  39  47
DOCKED: ATOM     47  N51A3TL A 101      17.583   3.556   2.198 -0.07 +0.04    -0.352 N 
DOCKED: ATOM     48  C61A3TL A 101      17.287   3.231   3.458 -0.15 -0.04    +0.241 C 
DOCKED: ATOM     49  O52A3TL A 101      17.290   2.084   3.864 -0.17 +0.06    -0.271 OA
DOCKED: ATOM     50  H51A3TL A 101      17.515   4.542   1.946 +0.10 -0.01    +0.163 HD
DOCKED: BRANCH  48  51
DOCKED: ATOM     51  C60A3TL A 101      16.924   4.381   4.370 -0.11 -0.02    +0.180 C 
DOCKED: BRANCH  51  52
DOCKED: ATOM     52  N52A3TL A 101      17.084   3.997   5.767 -0.05 +0.08    -0.346 N 
DOCKED: ATOM     53  C69A3TL A 101      18.167   4.217   6.514 -0.20 -0.08    +0.240 C 
DOCKED: ATOM     54  O54A3TL A 101      19.157   4.799   6.090 -0.29 +0.13    -0.271 OA
DOCKED: ATOM     55  H52A3TL A 101      16.301   3.519   6.212 -0.47 -0.06    +0.163 HD
DOCKED: BRANCH  53  56
DOCKED: ATOM     56  C68A3TL A 101      18.104   3.670   7.930 -0.23 -0.08    +0.174 C 
DOCKED: ATOM     57  C70A3TL A 101      17.780   2.182   7.907 -0.48 -0.01    +0.042 C 
DOCKED: BRANCH  56  58
DOCKED: ATOM     58  N54A3TL A 101      17.110   4.375   8.708 -0.12 +0.10    -0.324 N 
DOCKED: ATOM     59  C81A3TL A 101      15.898   4.742   8.297 -0.15 +0.03    +0.361 C 
DOCKED: ATOM     60  O58A3TL A 101      15.186   4.116   7.532 -0.55 -0.08    -0.238 OA
DOCKED: ATOM     61  H54A3TL A 101      17.363   4.615   9.667 +0.04 -0.07    +0.165 HD
DOCKED: BRANCH  59  62
DOCKED: ATOM     62  O59A3TL A 101      15.402   5.988   8.817 -0.11 -0.06    -0.299 OA
DOCKED: BRANCH  62  63
DOCKED: ATOM     63  CA5A3TL A 101      15.787   7.263   8.287 -0.07 +0.06    +0.219 C 
DOCKED: BRANCH  63  64
DOCKED: ATOM     64  C50A3TL A 101      14.950   7.680   7.096 -0.11 -0.01    -0.034 A 
DOCKED: ATOM     65  C63A3TL A 101      14.098   6.741   6.493 -0.26 +0.00    +0.009 A 
DOCKED: ATOM     66  C64A3TL A 101      13.322   7.087   5.385 -0.27 +0.00    +0.001 A 
DOCKED: ATOM     67  C65A3TL A 101      13.397   8.387   4.888 -0.19 +0.00    +0.000 A 
DOCKED: ATOM     68  C66A3TL A 101      14.242   9.329   5.480 -0.10 +0.00    +0.001 A 
DOCKED: ATOM     69  C67A3TL A 101      15.019   8.974   6.586 -0.07 +0.00    +0.009 A 
DOCKED: ENDBRANCH  63  64
DOCKED: ENDBRANCH  62  63
DOCKED: ENDBRANCH  59  62
DOCKED: ENDBRANCH  56  58
DOCKED: ENDBRANCH  53  56
DOCKED: ENDBRANCH  51  52
DOCKED: BRANCH  51  70
DOCKED: ATOM     70  C62A3TL A 101      17.767   5.626   4.081 -0.23 +0.00    +0.009 C 
DOCKED: ATOM     71  CG5A3TL A 101      17.447   6.248   2.720 -0.29 +0.00    +0.012 C 
DOCKED: ATOM     72  CG6A3TL A 101      17.589   6.672   5.171 -0.22 +0.00    +0.012 C 
DOCKED: ENDBRANCH  51  70
DOCKED: ENDBRANCH  48  51
DOCKED: ENDBRANCH  39  47
DOCKED: ENDBRANCH  38  39
DOCKED: BRANCH  38  73
DOCKED: ATOM     73  O51A3TL A 101      17.643   3.087  -1.130 +0.08 +0.06    -0.391 OA
DOCKED: ATOM     74  H51A3TL A 101      18.557   2.850  -1.025 +0.14 -0.09    +0.210 HD
DOCKED: ENDBRANCH  38  73
DOCKED: ENDBRANCH   1  38
DOCKED: TORSDOF 27
DOCKED: TER
DOCKED: ENDMDL
________________________________________________________________________________


	BEGINNING GENETIC ALGORITHM DOCKING 3 of 10
Run: 3 Seed: 740983223 1126072018 [ Run 3 of 10 GA/GALS ]
Beginning LAMARCKIAN GENETIC ALGORITHM (LGA), with a maximum of 2500000 energy evaluations.

Final-Value: -14.753


	FINAL GENETIC ALGORITHM DOCKED STATE
	_______________________________________________


Detailed state:  trans 19.597 -1.408 -0.167 quatxyzw 0.206006 -0.883674 -0.312816 -0.280763 center 17.085 -0.070 0.744 ntor 27 179.5063 1.1699 101.9251 -113.9954 106.9374 -37.7047 179.9198 -159.3017 34.3259 3.0294 30.7252 173.8434 163.3187 -124.6627 157.2469 -176.5792 -131.5014 -112.3869 -55.9487 158.1918 -139.6392 -33.9696 173.7941 -179.8905 136.2474 108.6632 -174.4387
State:	 19.597  -1.408  -0.167   0.215 -0.921 -0.326 -147.389    179.51    1.17  101.93 -114.00  106.94  -37.70  179.92 -159.30   34.33    3.03   30.73  173.84  163.32 -124.66  157.25 -176.58 -131.50 -112.39  -55.95  158.19 -139.64  -33.97  173.79 -179.89  136.25  108.66 -174.44

DOCKED: MODEL        3
DOCKED: USER    Run = 3
DOCKED: USER    DPF = dock.dpf
DOCKED: USER  
DOCKED: USER    Estimated Free Energy of Binding    =   -6.26 kcal/mol  [=(1)+(2)+(3)-(4)]
DOCKED: USER    Estimated Inhibition Constant, Ki   =   25.84 uM (micromolar)  [Temperature = 298.15 K]
DOCKED: USER    
DOCKED: USER    (1) Final Intermolecular Energy     =  -14.31 kcal/mol
DOCKED: USER        vdW + Hbond + desolv Energy     =  -14.51 kcal/mol
DOCKED: USER        Electrostatic Energy            =   +0.19 kcal/mol
DOCKED: USER    (2) Final Total Internal Energy     =   -0.44 kcal/mol
DOCKED: USER    (3) Torsional Free Energy           =   +8.05 kcal/mol
DOCKED: USER    (4) Unbound System's Energy  [=(2)] =   -0.44 kcal/mol
DOCKED: USER    
DOCKED: USER    
DOCKED: USER    NEWDPF move lig2p3b.pdbqt
DOCKED: USER    NEWDPF about 17.085000 -0.070000 0.744000
DOCKED: USER    NEWDPF tran0 19.597261 -1.407538 -0.167473
DOCKED: USER    NEWDPF quaternion0 0.206006 -0.883674 -0.312816 -0.280763
DOCKED: USER    NEWDPF axisangle0 0.214640 -0.920707 -0.325926 -147.388499
DOCKED: USER    NEWDPF quat0 0.214640 -0.920707 -0.325926 -147.388499
DOCKED: USER    NEWDPF dihe0 179.51 1.17 101.93 -114.00 106.94 -37.70 179.92 -159.30 34.33 3.03 30.73 173.84 163.32 -124.66 157.25 -176.58 -131.50 -112.39 -55.95 158.19 -139.64 -33.97 173.79 -179.89 136.25 108.66 -174.44 
DOCKED: USER  keepresnum = 1 
DOCKED: USER  
DOCKED: REMARK  27 active torsions:
DOCKED: REMARK  status: ('A' for Active; 'I' for Inactive)
DOCKED: REMARK    1  A    between atoms: CA@A_1  and  C@A_3 
DOCKED: REMARK    2  A    between atoms: CA@A_1  and  O9@A_28 
DOCKED: REMARK    3  A    between atoms: CA5@A_2  and  C50@A_41 
DOCKED: REMARK    4  A    between atoms: CA5@A_2  and  O59@A_62 
DOCKED: REMARK    5  A    between atoms: C1@A_8  and  N1@A_9 
DOCKED: REMARK    6  A    between atoms: C1@A_8  and  C3@A_17 
DOCKED: REMARK    7  A    between atoms: C1@A_8  and  C2@A_13 
DOCKED: REMARK       I    between atoms: N1@A_9  and  C11@A_30 
DOCKED: REMARK    8  A    between atoms: O1@A_11  and  C2@A_13 
DOCKED: REMARK    9  A    between atoms: C2@A_13  and  C52@A_47 
DOCKED: REMARK   10  A    between atoms: N2@A_14  and  C10@A_29 
DOCKED: REMARK       I    between atoms: N2@A_14  and  C19@A_38 
DOCKED: REMARK   11  A    between atoms: C3@A_17  and  C4@A_18 
DOCKED: REMARK   12  A    between atoms: N4@A_19  and  C18@A_37 
DOCKED: REMARK       I    between atoms: N4@A_19  and  C31@A_40 
DOCKED: REMARK   13  A    between atoms: O9@A_28  and  C31@A_40 
DOCKED: REMARK   14  A    between atoms: C10@A_29  and  C11@A_30 
DOCKED: REMARK   15  A    between atoms: C10@A_29  and  C12@A_31 
DOCKED: REMARK   16  A    between atoms: C18@A_37  and  C19@A_38 
DOCKED: REMARK   17  A    between atoms: C51@A_42  and  C52@A_47 
DOCKED: REMARK   18  A    between atoms: C51@A_42  and  C53@A_51 
DOCKED: REMARK   19  A    between atoms: C51@A_42  and  N51@A_43 
DOCKED: REMARK       I    between atoms: N51@A_43  and  C61@A_64 
DOCKED: REMARK   20  A    between atoms: O51@A_45  and  C52@A_47 
DOCKED: REMARK   21  A    between atoms: N52@A_48  and  C60@A_63 
DOCKED: REMARK       I    between atoms: N52@A_48  and  C69@A_72 
DOCKED: REMARK   22  A    between atoms: C53@A_51  and  C54@A_52 
DOCKED: REMARK   23  A    between atoms: N54@A_53  and  C68@A_71 
DOCKED: REMARK       I    between atoms: N54@A_53  and  C81@A_74 
DOCKED: REMARK   24  A    between atoms: O59@A_62  and  C81@A_74 
DOCKED: REMARK   25  A    between atoms: C60@A_63  and  C61@A_64 
DOCKED: REMARK   26  A    between atoms: C60@A_63  and  C62@A_65 
DOCKED: REMARK   27  A    between atoms: C68@A_71  and  C69@A_72 
DOCKED: USER                              x       y       z     vdW  Elec       q    Type
DOCKED: USER                           _______ _______ _______ _____ _____    ______ ____
DOCKED: ROOT
DOCKED: ATOM      1  C2 A3TL A 101      17.498  -2.750   1.241 -0.33 -0.02    +0.171 C 
DOCKED: ENDROOT
DOCKED: BRANCH   1   2
DOCKED: ATOM      2  C1 A3TL A 101      17.640  -1.224   1.282 -0.28 -0.02    +0.120 C 
DOCKED: BRANCH   2   3
DOCKED: ATOM      3  N1 A3TL A 101      17.881  -0.727   2.644 -0.10 +0.10    -0.352 N 
DOCKED: ATOM      4  C11A3TL A 101      18.943  -1.075   3.383 -0.32 -0.15    +0.241 C 
DOCKED: ATOM      5  O2 A3TL A 101      19.740  -1.940   3.032 -0.15 +0.35    -0.271 OA
DOCKED: ATOM      6  H1 A3TL A 101      17.203  -0.081   3.049 +0.10 -0.02    +0.163 HD
DOCKED: BRANCH   4   7
DOCKED: ATOM      7  C10A3TL A 101      19.121  -0.357   4.698 -0.29 -0.07    +0.180 C 
DOCKED: BRANCH   7   8
DOCKED: ATOM      8  N2 A3TL A 101      18.542   0.972   4.672 -0.12 +0.10    -0.346 N 
DOCKED: ATOM      9  C19A3TL A 101      18.567   1.786   5.732 -0.26 -0.05    +0.240 C 
DOCKED: ATOM     10  O4 A3TL A 101      18.871   1.401   6.852 -0.38 +0.02    -0.271 OA
DOCKED: ATOM     11  H2 A3TL A 101      18.100   1.299   3.813 +0.10 -0.05    +0.163 HD
DOCKED: BRANCH   9  12
DOCKED: ATOM     12  C18A3TL A 101      18.188   3.223   5.460 -0.23 -0.04    +0.174 C 
DOCKED: ATOM     13  C20A3TL A 101      17.074   3.645   6.399 -0.21 -0.01    +0.042 C 
DOCKED: BRANCH  12  14
DOCKED: ATOM     14  N4 A3TL A 101      17.822   3.499   4.081 -0.08 +0.06    -0.324 N 
DOCKED: ATOM     15  C31A3TL A 101      16.969   2.683   3.451 -0.01 -0.06    +0.361 C 
DOCKED: ATOM     16  O8 A3TL A 101      16.375   1.791   4.015 +0.13 +0.06    -0.238 OA
DOCKED: ATOM     17  H4 A3TL A 101      18.213   4.307   3.597 +0.09 -0.02    +0.165 HD
DOCKED: BRANCH  15  18
DOCKED: ATOM     18  O9 A3TL A 101      16.711   2.874   2.042 -0.19 -0.01    -0.299 OA
DOCKED: BRANCH  18  19
DOCKED: ATOM     19  CA A3TL A 101      16.779   4.159   1.393 -0.28 +0.01    +0.219 C 
DOCKED: BRANCH  19  20
DOCKED: ATOM     20  C  A3TL A 101      16.290   5.341   2.227 -0.31 -0.00    -0.034 A 
DOCKED: ATOM     21  C13A3TL A 101      14.912   5.593   2.321 -0.32 +0.00    +0.009 A 
DOCKED: ATOM     22  C14A3TL A 101      14.411   6.652   3.082 -0.15 +0.00    +0.001 A 
DOCKED: ATOM     23  C15A3TL A 101      15.296   7.493   3.748 -0.20 +0.00    +0.000 A 
DOCKED: ATOM     24  C16A3TL A 101      16.667   7.255   3.667 -0.21 +0.00    +0.001 A 
DOCKED: ATOM     25  C17A3TL A 101      17.156   6.183   2.909 -0.24 +0.00    +0.009 A 
DOCKED: ENDBRANCH  19  20
DOCKED: ENDBRANCH  18  19
DOCKED: ENDBRANCH  15  18
DOCKED: ENDBRANCH  12  14
DOCKED: ENDBRANCH   9  12
DOCKED: ENDBRANCH   7   8
DOCKED: BRANCH   7  26
DOCKED: ATOM     26  C12A3TL A 101      18.529  -1.128   5.894 -0.62 -0.00    +0.009 C 
DOCKED: ATOM     27  CG1A3TL A 101      19.265  -0.832   7.198 -0.62 -0.00    +0.012 C 
DOCKED: ATOM     28  CG2A3TL A 101      17.060  -0.813   6.110 -0.54 -0.00    +0.012 C 
DOCKED: ENDBRANCH   7  26
DOCKED: ENDBRANCH   4   7
DOCKED: ENDBRANCH   2   3
DOCKED: BRANCH   2  29
DOCKED: ATOM     29  C3 A3TL A 101      18.735  -0.794   0.295 -0.28 -0.04    +0.066 C 
DOCKED: BRANCH  29  30
DOCKED: ATOM     30  C4 A3TL A 101      19.033   0.678   0.434 -0.26 +0.04    -0.056 A 
DOCKED: ATOM     31  C5 A3TL A 101      19.501   1.196   1.645 -0.34 -0.01    +0.007 A 
DOCKED: ATOM     32  C6 A3TL A 101      19.781   2.562   1.770 -0.08 -0.00    +0.001 A 
DOCKED: ATOM     33  C7 A3TL A 101      19.566   3.412   0.682 -0.44 -0.00    +0.000 A 
DOCKED: ATOM     34  C8 A3TL A 101      19.084   2.887  -0.522 -0.24 -0.00    +0.001 A 
DOCKED: ATOM     35  C9 A3TL A 101      18.825   1.527  -0.655 -0.36 -0.00    +0.007 A 
DOCKED: ENDBRANCH  29  30
DOCKED: ENDBRANCH   2  29
DOCKED: ENDBRANCH   1   2
DOCKED: BRANCH   1  36
DOCKED: ATOM     36  O1 A3TL A 101      16.219  -3.110   1.693 -0.19 -0.06    -0.391 OA
DOCKED: ATOM     37  H1 A3TL A 101      15.738  -2.325   1.928 +0.12 +0.08    +0.210 HD
DOCKED: ENDBRANCH   1  36
DOCKED: BRANCH   1  38
DOCKED: ATOM     38  C52A3TL A 101      17.665  -3.386  -0.142 -0.26 -0.02    +0.171 C 
DOCKED: BRANCH  38  39
DOCKED: ATOM     39  C51A3TL A 101      16.377  -3.729  -0.876 -0.06 +0.01    +0.120 C 
DOCKED: BRANCH  39  40
DOCKED: ATOM     40  C53A3TL A 101      15.877  -5.043  -0.256 -0.41 +0.01    +0.066 C 
DOCKED: BRANCH  40  41
DOCKED: ATOM     41  C54A3TL A 101      15.158  -5.941  -1.232 -0.30 -0.01    -0.056 A 
DOCKED: ATOM     42  C55A3TL A 101      13.763  -5.985  -1.283 -0.22 +0.00    +0.007 A 
DOCKED: ATOM     43  C56A3TL A 101      13.101  -6.808  -2.197 -0.35 +0.00    +0.001 A 
DOCKED: ATOM     44  C57A3TL A 101      13.867  -7.581  -3.067 -0.24 +0.00    +0.000 A 
DOCKED: ATOM     45  C58A3TL A 101      15.266  -7.532  -3.022 -0.18 +0.00    +0.001 A 
DOCKED: ATOM     46  C59A3TL A 101      15.913  -6.707  -2.110 -0.25 +0.00    +0.007 A 
DOCKED: ENDBRANCH  40  41
DOCKED: ENDBRANCH  39  40
DOCKED: BRANCH  39  47
DOCKED: ATOM     47  N51A3TL A 101      16.636  -3.861  -2.311 -0.05 +0.04    -0.352 N 
DOCKED: ATOM     48  C61A3TL A 101      17.501  -4.702  -2.881 -0.13 -0.02    +0.241 C 
DOCKED: ATOM     49  O52A3TL A 101      18.222  -5.444  -2.240 -0.11 -0.01    -0.271 OA
DOCKED: ATOM     50  H51A3TL A 101      16.104  -3.252  -2.933 -0.40 -0.09    +0.163 HD
DOCKED: BRANCH  48  51
DOCKED: ATOM     51  C60A3TL A 101      17.554  -4.674  -4.391 -0.19 -0.03    +0.180 C 
DOCKED: BRANCH  51  52
DOCKED: ATOM     52  N52A3TL A 101      18.046  -3.385  -4.863 -0.12 +0.09    -0.346 N 
DOCKED: ATOM     53  C69A3TL A 101      18.863  -2.572  -4.192 -0.25 -0.06    +0.240 C 
DOCKED: ATOM     54  O54A3TL A 101      19.309  -2.847  -3.085 -0.13 +0.12    -0.271 OA
DOCKED: ATOM     55  H52A3TL A 101      17.738  -3.078  -5.786 +0.09 -0.04    +0.163 HD
DOCKED: BRANCH  53  56
DOCKED: ATOM     56  C68A3TL A 101      19.186  -1.257  -4.881 -0.21 -0.02    +0.174 C 
DOCKED: ATOM     57  C70A3TL A 101      18.999  -0.095  -3.915 -0.33 -0.01    +0.042 C 
DOCKED: BRANCH  56  58
DOCKED: ATOM     58  N54A3TL A 101      18.344  -1.068  -6.042 -0.24 +0.04    -0.324 N 
DOCKED: ATOM     59  C81A3TL A 101      17.078  -1.461  -6.175 -0.24 -0.05    +0.361 C 
DOCKED: ATOM     60  O58A3TL A 101      16.243  -1.480  -5.288 -0.17 +0.06    -0.238 OA
DOCKED: ATOM     61  H54A3TL A 101      18.762  -0.586  -6.838 +0.11 -0.02    +0.165 HD
DOCKED: BRANCH  59  62
DOCKED: ATOM     62  O59A3TL A 101      16.682  -1.892  -7.488 -0.16 +0.05    -0.299 OA
DOCKED: BRANCH  62  63
DOCKED: ATOM     63  CA5A3TL A 101      17.352  -2.941  -8.199 -0.18 -0.14    +0.219 C 
DOCKED: BRANCH  63  64
DOCKED: ATOM     64  C50A3TL A 101      16.576  -4.241  -8.196 -0.30 +0.01    -0.034 A 
DOCKED: ATOM     65  C63A3TL A 101      15.258  -4.252  -7.712 -0.23 +0.00    +0.009 A 
DOCKED: ATOM     66  C64A3TL A 101      14.517  -5.435  -7.682 -0.31 +0.00    +0.001 A 
DOCKED: ATOM     67  C65A3TL A 101      15.100  -6.609  -8.152 -0.13 +0.00    +0.000 A 
DOCKED: ATOM     68  C66A3TL A 101      16.411  -6.610  -8.635 -0.11 +0.00    +0.001 A 
DOCKED: ATOM     69  C67A3TL A 101      17.149  -5.423  -8.658 -0.18 -0.00    +0.009 A 
DOCKED: ENDBRANCH  63  64
DOCKED: ENDBRANCH  62  63
DOCKED: ENDBRANCH  59  62
DOCKED: ENDBRANCH  56  58
DOCKED: ENDBRANCH  53  56
DOCKED: ENDBRANCH  51  52
DOCKED: BRANCH  51  70
DOCKED: ATOM     70  C62A3TL A 101      18.434  -5.794  -4.952 -0.17 -0.00    +0.009 C 
DOCKED: ATOM     71  CG5A3TL A 101      19.847  -5.779  -4.367 -0.11 -0.00    +0.012 C 
DOCKED: ATOM     72  CG6A3TL A 101      17.802  -7.157  -4.716 +0.08 +0.01    +0.012 C 
DOCKED: ENDBRANCH  51  70
DOCKED: ENDBRANCH  48  51
DOCKED: ENDBRANCH  39  47
DOCKED: ENDBRANCH  38  39
DOCKED: BRANCH  38  73
DOCKED: ATOM     73  O51A3TL A 101      18.333  -2.440  -0.946 -0.08 +0.12    -0.391 OA
DOCKED: ATOM     74  H51A3TL A 101      18.420  -2.828  -1.809 +0.10 -0.06    +0.210 HD
DOCKED: ENDBRANCH  38  73
DOCKED: ENDBRANCH   1  38
DOCKED: TORSDOF 27
DOCKED: TER
DOCKED: ENDMDL
________________________________________________________________________________


	BEGINNING GENETIC ALGORITHM DOCKING 4 of 10
Run: 4 Seed: 614246502 1356627538 [ Run 4 of 10 GA/GALS ]
Beginning LAMARCKIAN GENETIC ALGORITHM (LGA), with a maximum of 2500000 energy evaluations.

Final-Value: -15.706


	FINAL GENETIC ALGORITHM DOCKED STATE
	_______________________________________________


Detailed state:  trans 18.644 -2.732 -2.423 quatxyzw -0.068143 -0.154594 -0.920214 0.353078 center 17.085 -0.070 0.744 ntor 27 -145.1578 -66.4099 84.1095 -100.5201 -18.8686 180.0000 179.5395 40.3902 14.1112 36.6713 -174.1030 150.4187 -65.9530 79.2481 -178.9601 -132.1435 -44.5698 -139.3295 -38.8742 62.1562 142.7450 96.7469 -24.4355 -79.3098 -152.0439 60.8710 175.2734
State:	 18.644  -2.732  -2.423  -0.073 -0.165 -0.984 138.649   -145.16  -66.41   84.11 -100.52  -18.87  180.00  179.54   40.39   14.11   36.67 -174.10  150.42  -65.95   79.25 -178.96 -132.14  -44.57 -139.33  -38.87   62.16  142.74   96.75  -24.44  -79.31 -152.04   60.87  175.27

DOCKED: MODEL        4
DOCKED: USER    Run = 4
DOCKED: USER    DPF = dock.dpf
DOCKED: USER  
DOCKED: USER    Estimated Free Energy of Binding    =   -1.76 kcal/mol  [=(1)+(2)+(3)-(4)]
DOCKED: USER    Estimated Inhibition Constant, Ki   =   51.01 mM (millimolar)  [Temperature = 298.15 K]
DOCKED: USER    
DOCKED: USER    (1) Final Intermolecular Energy     =   -9.82 kcal/mol
DOCKED: USER        vdW + Hbond + desolv Energy     =   -9.72 kcal/mol
DOCKED: USER        Electrostatic Energy            =   -0.10 kcal/mol
DOCKED: USER    (2) Final Total Internal Energy     =   -5.89 kcal/mol
DOCKED: USER    (3) Torsional Free Energy           =   +8.05 kcal/mol
DOCKED: USER    (4) Unbound System's Energy  [=(2)] =   -5.89 kcal/mol
DOCKED: USER    
DOCKED: USER    
DOCKED: USER    NEWDPF move lig2p3b.pdbqt
DOCKED: USER    NEWDPF about 17.085000 -0.070000 0.744000
DOCKED: USER    NEWDPF tran0 18.643805 -2.731617 -2.422735
DOCKED: USER    NEWDPF quaternion0 -0.068143 -0.154594 -0.920214 0.353078
DOCKED: USER    NEWDPF axisangle0 -0.072834 -0.165236 -0.983561 138.648550
DOCKED: USER    NEWDPF quat0 -0.072834 -0.165236 -0.983561 138.648550
DOCKED: USER    NEWDPF dihe0 -145.16 -66.41 84.11 -100.52 -18.87 180.00 179.54 40.39 14.11 36.67 -174.10 150.42 -65.95 79.25 -178.96 -132.14 -44.57 -139.33 -38.87 62.16 142.74 96.75 -24.44 -79.31 -152.04 60.87 175.27 
DOCKED: USER  keepresnum = 1 
DOCKED: USER  
DOCKED: REMARK  27 active torsions:
DOCKED: REMARK  status: ('A' for Active; 'I' for Inactive)
DOCKED: REMARK    1  A    between atoms: CA@A_1  and  C@A_3 
DOCKED: REMARK    2  A    between atoms: CA@A_1  and  O9@A_28 
DOCKED: REMARK    3  A    between atoms: CA5@A_2  and  C50@A_41 
DOCKED: REMARK    4  A    between atoms: CA5@A_2  and  O59@A_62 
DOCKED: REMARK    5  A    between atoms: C1@A_8  and  N1@A_9 
DOCKED: REMARK    6  A    between atoms: C1@A_8  and  C3@A_17 
DOCKED: REMARK    7  A    between atoms: C1@A_8  and  C2@A_13 
DOCKED: REMARK       I    between atoms: N1@A_9  and  C11@A_30 
DOCKED: REMARK    8  A    between atoms: O1@A_11  and  C2@A_13 
DOCKED: REMARK    9  A    between atoms: C2@A_13  and  C52@A_47 
DOCKED: REMARK   10  A    between atoms: N2@A_14  and  C10@A_29 
DOCKED: REMARK       I    between atoms: N2@A_14  and  C19@A_38 
DOCKED: REMARK   11  A    between atoms: C3@A_17  and  C4@A_18 
DOCKED: REMARK   12  A    between atoms: N4@A_19  and  C18@A_37 
DOCKED: REMARK       I    between atoms: N4@A_19  and  C31@A_40 
DOCKED: REMARK   13  A    between atoms: O9@A_28  and  C31@A_40 
DOCKED: REMARK   14  A    between atoms: C10@A_29  and  C11@A_30 
DOCKED: REMARK   15  A    between atoms: C10@A_29  and  C12@A_31 
DOCKED: REMARK   16  A    between atoms: C18@A_37  and  C19@A_38 
DOCKED: REMARK   17  A    between atoms: C51@A_42  and  C52@A_47 
DOCKED: REMARK   18  A    between atoms: C51@A_42  and  C53@A_51 
DOCKED: REMARK   19  A    between atoms: C51@A_42  and  N51@A_43 
DOCKED: REMARK       I    between atoms: N51@A_43  and  C61@A_64 
DOCKED: REMARK   20  A    between atoms: O51@A_45  and  C52@A_47 
DOCKED: REMARK   21  A    between atoms: N52@A_48  and  C60@A_63 
DOCKED: REMARK       I    between atoms: N52@A_48  and  C69@A_72 
DOCKED: REMARK   22  A    between atoms: C53@A_51  and  C54@A_52 
DOCKED: REMARK   23  A    between atoms: N54@A_53  and  C68@A_71 
DOCKED: REMARK       I    between atoms: N54@A_53  and  C81@A_74 
DOCKED: REMARK   24  A    between atoms: O59@A_62  and  C81@A_74 
DOCKED: REMARK   25  A    between atoms: C60@A_63  and  C61@A_64 
DOCKED: REMARK   26  A    between atoms: C60@A_63  and  C62@A_65 
DOCKED: REMARK   27  A    between atoms: C68@A_71  and  C69@A_72 
DOCKED: USER                              x       y       z     vdW  Elec       q    Type
DOCKED: USER                           _______ _______ _______ _____ _____    ______ ____
DOCKED: ROOT
DOCKED: ATOM      1  C2 A3TL A 101      16.267  -1.136  -2.429 +0.02 -0.02    +0.171 C 
DOCKED: ENDROOT
DOCKED: BRANCH   1   2
DOCKED: ATOM      2  C1 A3TL A 101      16.385  -2.393  -1.557 +0.65 -0.00    +0.120 C 
DOCKED: BRANCH   2   3
DOCKED: ATOM      3  N1 A3TL A 101      16.932  -3.535  -2.303 -0.06 +0.05    -0.352 N 
DOCKED: ATOM      4  C11A3TL A 101      16.455  -4.783  -2.202 -0.16 +0.00    +0.241 C 
DOCKED: ATOM      5  O2 A3TL A 101      15.603  -5.103  -1.380 -0.25 -0.03    -0.271 OA
DOCKED: ATOM      6  H1 A3TL A 101      17.717  -3.368  -2.933 +0.06 -0.03    +0.163 HD
DOCKED: BRANCH   4   7
DOCKED: ATOM      7  C10A3TL A 101      17.027  -5.808  -3.151 -0.15 +0.02    +0.180 C 
DOCKED: BRANCH   7   8
DOCKED: ATOM      8  N2 A3TL A 101      16.097  -6.142  -4.212 -0.06 -0.05    -0.346 N 
DOCKED: ATOM      9  C19A3TL A 101      16.239  -7.231  -4.974 -0.10 +0.07    +0.240 C 
DOCKED: ATOM     10  O4 A3TL A 101      17.265  -7.897  -4.987 -0.21 -0.18    -0.271 OA
DOCKED: ATOM     11  H2 A3TL A 101      15.304  -5.523  -4.384 +0.04 +0.01    +0.163 HD
DOCKED: BRANCH   9  12
DOCKED: ATOM     12  C18A3TL A 101      15.046  -7.589  -5.829 -0.10 +0.05    +0.174 C 
DOCKED: ATOM     13  C20A3TL A 101      14.953  -9.096  -5.972 -0.07 +0.01    +0.042 C 
DOCKED: BRANCH  12  14
DOCKED: ATOM     14  N4 A3TL A 101      15.027  -6.953  -7.134 -0.04 -0.08    -0.324 N 
DOCKED: ATOM     15  C31A3TL A 101      15.904  -7.340  -8.067 -0.01 +0.08    +0.361 C 
DOCKED: ATOM     16  O8 A3TL A 101      16.635  -8.294  -7.926 -0.16 -0.09    -0.238 OA
DOCKED: ATOM     17  H4 A3TL A 101      14.351  -6.217  -7.338 +0.06 +0.04    +0.165 HD
DOCKED: BRANCH  15  18
DOCKED: ATOM     18  O9 A3TL A 101      15.980  -6.616  -9.317 -0.03 -0.06    -0.299 OA
DOCKED: BRANCH  18  19
DOCKED: ATOM     19  CA A3TL A 101      17.001  -5.641  -9.605 -0.12 -0.01    +0.219 C 
DOCKED: BRANCH  19  20
DOCKED: ATOM     20  C  A3TL A 101      17.104  -4.487  -8.610 -0.26 +0.01    -0.034 A 
DOCKED: ATOM     21  C13A3TL A 101      18.334  -3.828  -8.446 +0.13 -0.01    +0.009 A 
DOCKED: ATOM     22  C14A3TL A 101      18.479  -2.758  -7.560 -0.34 -0.00    +0.001 A 
DOCKED: ATOM     23  C15A3TL A 101      17.388  -2.345  -6.803 -0.44 -0.00    +0.000 A 
DOCKED: ATOM     24  C16A3TL A 101      16.160  -2.986  -6.956 -0.31 -0.00    +0.001 A 
DOCKED: ATOM     25  C17A3TL A 101      16.024  -4.051  -7.856 -0.34 -0.00    +0.009 A 
DOCKED: ENDBRANCH  19  20
DOCKED: ENDBRANCH  18  19
DOCKED: ENDBRANCH  15  18
DOCKED: ENDBRANCH  12  14
DOCKED: ENDBRANCH   9  12
DOCKED: ENDBRANCH   7   8
DOCKED: BRANCH   7  26
DOCKED: ATOM     26  C12A3TL A 101      18.360  -5.367  -3.787 -0.28 -0.00    +0.009 C 
DOCKED: ATOM     27  CG1A3TL A 101      19.418  -6.466  -3.741 -0.22 +0.00    +0.012 C 
DOCKED: ATOM     28  CG2A3TL A 101      18.194  -4.946  -5.236 -0.25 -0.00    +0.012 C 
DOCKED: ENDBRANCH   7  26
DOCKED: ENDBRANCH   4   7
DOCKED: ENDBRANCH   2   3
DOCKED: BRANCH   2  29
DOCKED: ATOM     29  C3 A3TL A 101      17.208  -2.059  -0.304 -0.30 -0.00    +0.066 C 
DOCKED: BRANCH  29  30
DOCKED: ATOM     30  C4 A3TL A 101      18.161  -3.181   0.025 -0.28 +0.01    -0.056 A 
DOCKED: ATOM     31  C5 A3TL A 101      17.717  -4.307   0.725 -0.39 -0.00    +0.007 A 
DOCKED: ATOM     32  C6 A3TL A 101      18.602  -5.349   1.025 +0.31 -0.00    +0.001 A 
DOCKED: ATOM     33  C7 A3TL A 101      19.942  -5.246   0.642 +0.37 -0.00    +0.000 A 
DOCKED: ATOM     34  C8 A3TL A 101      20.381  -4.109  -0.044 -0.23 -0.00    +0.001 A 
DOCKED: ATOM     35  C9 A3TL A 101      19.498  -3.082  -0.362 -0.26 -0.00    +0.007 A 
DOCKED: ENDBRANCH  29  30
DOCKED: ENDBRANCH   2  29
DOCKED: ENDBRANCH   1   2
DOCKED: BRANCH   1  36
DOCKED: ATOM     36  O1 A3TL A 101      15.185  -0.362  -1.982 +0.24 -0.05    -0.391 OA
DOCKED: ATOM     37  H1 A3TL A 101      15.117  -0.435  -1.037 +0.11 +0.06    +0.210 HD
DOCKED: ENDBRANCH   1  36
DOCKED: BRANCH   1  38
DOCKED: ATOM     38  C52A3TL A 101      17.492  -0.217  -2.421 -0.29 -0.03    +0.171 C 
DOCKED: BRANCH  38  39
DOCKED: ATOM     39  C51A3TL A 101      17.320   1.113  -1.702 -0.34 -0.02    +0.120 C 
DOCKED: BRANCH  39  40
DOCKED: ATOM     40  C53A3TL A 101      17.743   2.192  -2.711 +0.52 -0.01    +0.066 C 
DOCKED: BRANCH  40  41
DOCKED: ATOM     41  C54A3TL A 101      17.997   1.660  -4.100 -0.47 +0.01    -0.056 A 
DOCKED: ATOM     42  C55A3TL A 101      19.293   1.409  -4.554 -0.36 -0.00    +0.007 A 
DOCKED: ATOM     43  C56A3TL A 101      19.522   0.905  -5.836 -0.25 -0.00    +0.001 A 
DOCKED: ATOM     44  C57A3TL A 101      18.423   0.649  -6.653 -0.43 -0.00    +0.000 A 
DOCKED: ATOM     45  C58A3TL A 101      17.122   0.894  -6.196 +0.00 -0.00    +0.001 A 
DOCKED: ATOM     46  C59A3TL A 101      16.907   1.393  -4.917 -0.46 -0.00    +0.007 A 
DOCKED: ENDBRANCH  40  41
DOCKED: ENDBRANCH  39  40
DOCKED: BRANCH  39  47
DOCKED: ATOM     47  N51A3TL A 101      18.141   1.140  -0.490 -0.09 +0.13    -0.352 N 
DOCKED: ATOM     48  C61A3TL A 101      18.559   2.232   0.154 -0.25 -0.11    +0.241 C 
DOCKED: ATOM     49  O52A3TL A 101      18.326   3.361  -0.238 -0.24 +0.08    -0.271 OA
DOCKED: ATOM     50  H51A3TL A 101      18.421   0.239  -0.102 +0.11 -0.08    +0.163 HD
DOCKED: BRANCH  48  51
DOCKED: ATOM     51  C60A3TL A 101      19.365   1.992   1.410 -0.27 -0.13    +0.180 C 
DOCKED: BRANCH  51  52
DOCKED: ATOM     52  N52A3TL A 101      19.441   3.208   2.210 +0.01 +0.20    -0.346 N 
DOCKED: ATOM     53  C69A3TL A 101      20.103   4.316   1.879 -0.03 -0.11    +0.240 C 
DOCKED: ATOM     54  O54A3TL A 101      20.718   4.431   0.826 +0.13 +0.16    -0.271 OA
DOCKED: ATOM     55  H52A3TL A 101      18.944   3.211   3.101 -0.00 -0.07    +0.163 HD
DOCKED: BRANCH  53  56
DOCKED: ATOM     56  C68A3TL A 101      20.072   5.429   2.913 -0.25 -0.02    +0.174 C 
DOCKED: ATOM     57  C70A3TL A 101      21.406   5.510   3.642 -0.08 -0.00    +0.042 C 
DOCKED: BRANCH  56  58
DOCKED: ATOM     58  N54A3TL A 101      19.006   5.212   3.866 -0.09 +0.03    -0.324 N 
DOCKED: ATOM     59  C81A3TL A 101      19.025   4.368   4.896 -0.14 -0.09    +0.361 C 
DOCKED: ATOM     60  O58A3TL A 101      19.999   4.099   5.578 -0.66 +0.10    -0.238 OA
DOCKED: ATOM     61  H54A3TL A 101      18.155   5.759   3.736 +0.09 +0.01    +0.165 HD
DOCKED: BRANCH  59  62
DOCKED: ATOM     62  O59A3TL A 101      17.776   3.731   5.219 -0.13 +0.06    -0.299 OA
DOCKED: BRANCH  62  63
DOCKED: ATOM     63  CA5A3TL A 101      16.926   4.176   6.283 -0.10 -0.04    +0.219 C 
DOCKED: BRANCH  63  64
DOCKED: ATOM     64  C50A3TL A 101      16.074   5.366   5.896 -0.18 -0.00    -0.034 A 
DOCKED: ATOM     65  C63A3TL A 101      15.680   6.280   6.887 -0.19 +0.00    +0.009 A 
DOCKED: ATOM     66  C64A3TL A 101      14.883   7.381   6.568 -0.15 +0.00    +0.001 A 
DOCKED: ATOM     67  C65A3TL A 101      14.490   7.569   5.245 -0.18 +0.00    +0.000 A 
DOCKED: ATOM     68  C66A3TL A 101      14.875   6.666   4.251 -0.25 +0.00    +0.001 A 
DOCKED: ATOM     69  C67A3TL A 101      15.669   5.563   4.579 -0.21 +0.00    +0.009 A 
DOCKED: ENDBRANCH  63  64
DOCKED: ENDBRANCH  62  63
DOCKED: ENDBRANCH  59  62
DOCKED: ENDBRANCH  56  58
DOCKED: ENDBRANCH  53  56
DOCKED: ENDBRANCH  51  52
DOCKED: BRANCH  51  70
DOCKED: ATOM     70  C62A3TL A 101      18.780   0.858   2.255 -0.33 -0.00    +0.009 C 
DOCKED: ATOM     71  CG5A3TL A 101      17.252   0.906   2.324 -0.34 -0.00    +0.012 C 
DOCKED: ATOM     72  CG6A3TL A 101      19.220  -0.500   1.729 -0.38 -0.01    +0.012 C 
DOCKED: ENDBRANCH  51  70
DOCKED: ENDBRANCH  48  51
DOCKED: ENDBRANCH  39  47
DOCKED: ENDBRANCH  38  39
DOCKED: BRANCH  38  73
DOCKED: ATOM     73  O51A3TL A 101      18.511  -0.905  -1.731 -0.09 +0.16    -0.391 OA
DOCKED: ATOM     74  H51A3TL A 101      19.192  -1.094  -2.367 +0.09 -0.11    +0.210 HD
DOCKED: ENDBRANCH  38  73
DOCKED: ENDBRANCH   1  38
DOCKED: TORSDOF 27
DOCKED: TER
DOCKED: ENDMDL
________________________________________________________________________________


	BEGINNING GENETIC ALGORITHM DOCKING 5 of 10
Run: 5 Seed: 401256283 314453192 [ Run 5 of 10 GA/GALS ]
Beginning LAMARCKIAN GENETIC ALGORITHM (LGA), with a maximum of 2500000 energy evaluations.

Final-Value: -26.088


	FINAL GENETIC ALGORITHM DOCKED STATE
	_______________________________________________


Detailed state:  trans 17.717 -0.977 0.199 quatxyzw -0.683308 -0.526899 0.295853 -0.409802 center 17.085 -0.070 0.744 ntor 27 115.2391 175.0704 -178.7121 147.9243 84.3863 -150.8018 -16.3804 -164.1192 92.4349 -26.8705 -26.1105 -117.4380 -109.7605 174.4805 -177.1345 -137.2216 -57.7011 27.5867 82.8874 -158.0877 -150.0295 -154.8081 -166.4811 -177.4572 -121.8213 -158.0463 99.0298
State:	 17.717  -0.977   0.199  -0.749 -0.578  0.324 -131.615    115.24  175.07 -178.71  147.92   84.39 -150.80  -16.38 -164.12   92.43  -26.87  -26.11 -117.44 -109.76  174.48 -177.13 -137.22  -57.70   27.59   82.89 -158.09 -150.03 -154.81 -166.48 -177.46 -121.82 -158.05   99.03

DOCKED: MODEL        5
DOCKED: USER    Run = 5
DOCKED: USER    DPF = dock.dpf
DOCKED: USER  
DOCKED: USER    Estimated Free Energy of Binding    =  -10.61 kcal/mol  [=(1)+(2)+(3)-(4)]
DOCKED: USER    Estimated Inhibition Constant, Ki   =   16.76 nM (nanomolar)  [Temperature = 298.15 K]
DOCKED: USER    
DOCKED: USER    (1) Final Intermolecular Energy     =  -18.66 kcal/mol
DOCKED: USER        vdW + Hbond + desolv Energy     =  -18.48 kcal/mol
DOCKED: USER        Electrostatic Energy            =   -0.18 kcal/mol
DOCKED: USER    (2) Final Total Internal Energy     =   -7.43 kcal/mol
DOCKED: USER    (3) Torsional Free Energy           =   +8.05 kcal/mol
DOCKED: USER    (4) Unbound System's Energy  [=(2)] =   -7.43 kcal/mol
DOCKED: USER    
DOCKED: USER    
DOCKED: USER    NEWDPF move lig2p3b.pdbqt
DOCKED: USER    NEWDPF about 17.085000 -0.070000 0.744000
DOCKED: USER    NEWDPF tran0 17.717107 -0.977167 0.198827
DOCKED: USER    NEWDPF quaternion0 -0.683308 -0.526899 0.295853 -0.409802
DOCKED: USER    NEWDPF axisangle0 -0.749098 -0.577630 0.324338 -131.615160
DOCKED: USER    NEWDPF quat0 -0.749098 -0.577630 0.324338 -131.615160
DOCKED: USER    NEWDPF dihe0 115.24 175.07 -178.71 147.92 84.39 -150.80 -16.38 -164.12 92.43 -26.87 -26.11 -117.44 -109.76 174.48 -177.13 -137.22 -57.70 27.59 82.89 -158.09 -150.03 -154.81 -166.48 -177.46 -121.82 -158.05 99.03 
DOCKED: USER  keepresnum = 1 
DOCKED: USER  
DOCKED: REMARK  27 active torsions:
DOCKED: REMARK  status: ('A' for Active; 'I' for Inactive)
DOCKED: REMARK    1  A    between atoms: CA@A_1  and  C@A_3 
DOCKED: REMARK    2  A    between atoms: CA@A_1  and  O9@A_28 
DOCKED: REMARK    3  A    between atoms: CA5@A_2  and  C50@A_41 
DOCKED: REMARK    4  A    between atoms: CA5@A_2  and  O59@A_62 
DOCKED: REMARK    5  A    between atoms: C1@A_8  and  N1@A_9 
DOCKED: REMARK    6  A    between atoms: C1@A_8  and  C3@A_17 
DOCKED: REMARK    7  A    between atoms: C1@A_8  and  C2@A_13 
DOCKED: REMARK       I    between atoms: N1@A_9  and  C11@A_30 
DOCKED: REMARK    8  A    between atoms: O1@A_11  and  C2@A_13 
DOCKED: REMARK    9  A    between atoms: C2@A_13  and  C52@A_47 
DOCKED: REMARK   10  A    between atoms: N2@A_14  and  C10@A_29 
DOCKED: REMARK       I    between atoms: N2@A_14  and  C19@A_38 
DOCKED: REMARK   11  A    between atoms: C3@A_17  and  C4@A_18 
DOCKED: REMARK   12  A    between atoms: N4@A_19  and  C18@A_37 
DOCKED: REMARK       I    between atoms: N4@A_19  and  C31@A_40 
DOCKED: REMARK   13  A    between atoms: O9@A_28  and  C31@A_40 
DOCKED: REMARK   14  A    between atoms: C10@A_29  and  C11@A_30 
DOCKED: REMARK   15  A    between atoms: C10@A_29  and  C12@A_31 
DOCKED: REMARK   16  A    between atoms: C18@A_37  and  C19@A_38 
DOCKED: REMARK   17  A    between atoms: C51@A_42  and  C52@A_47 
DOCKED: REMARK   18  A    between atoms: C51@A_42  and  C53@A_51 
DOCKED: REMARK   19  A    between atoms: C51@A_42  and  N51@A_43 
DOCKED: REMARK       I    between atoms: N51@A_43  and  C61@A_64 
DOCKED: REMARK   20  A    between atoms: O51@A_45  and  C52@A_47 
DOCKED: REMARK   21  A    between atoms: N52@A_48  and  C60@A_63 
DOCKED: REMARK       I    between atoms: N52@A_48  and  C69@A_72 
DOCKED: REMARK   22  A    between atoms: C53@A_51  and  C54@A_52 
DOCKED: REMARK   23  A    between atoms: N54@A_53  and  C68@A_71 
DOCKED: REMARK       I    between atoms: N54@A_53  and  C81@A_74 
DOCKED: REMARK   24  A    between atoms: O59@A_62  and  C81@A_74 
DOCKED: REMARK   25  A    between atoms: C60@A_63  and  C61@A_64 
DOCKED: REMARK   26  A    between atoms: C60@A_63  and  C62@A_65 
DOCKED: REMARK   27  A    between atoms: C68@A_71  and  C69@A_72 
DOCKED: USER                              x       y       z     vdW  Elec       q    Type
DOCKED: USER                           _______ _______ _______ _____ _____    ______ ____
DOCKED: ROOT
DOCKED: ATOM      1  C2 A3TL A 101      18.814   1.662   0.044 -0.27 -0.11    +0.171 C 
DOCKED: ENDROOT
DOCKED: BRANCH   1   2
DOCKED: ATOM      2  C1 A3TL A 101      18.629   0.798  -1.209 -0.32 -0.06    +0.120 C 
DOCKED: BRANCH   2   3
DOCKED: ATOM      3  N1 A3TL A 101      18.422  -0.619  -0.879 -0.05 +0.15    -0.352 N 
DOCKED: ATOM      4  C11A3TL A 101      17.244  -1.124  -0.485 -0.20 -0.03    +0.241 C 
DOCKED: ATOM      5  O2 A3TL A 101      16.268  -0.420  -0.244 -0.39 -0.04    -0.271 OA
DOCKED: ATOM      6  H1 A3TL A 101      19.217  -1.253  -0.953 +0.10 -0.11    +0.163 HD
DOCKED: BRANCH   4   7
DOCKED: ATOM      7  C10A3TL A 101      17.164  -2.623  -0.334 -0.24 -0.01    +0.180 C 
DOCKED: BRANCH   7   8
DOCKED: ATOM      8  N2 A3TL A 101      17.911  -3.313  -1.368 -0.07 +0.06    -0.346 N 
DOCKED: ATOM      9  C19A3TL A 101      17.889  -2.928  -2.648 -0.16 -0.06    +0.240 C 
DOCKED: ATOM     10  O4 A3TL A 101      17.077  -2.121  -3.079 -0.15 +0.07    -0.271 OA
DOCKED: ATOM     11  H2 A3TL A 101      18.476  -4.122  -1.109 +0.09 -0.03    +0.163 HD
DOCKED: BRANCH   9  12
DOCKED: ATOM     12  C18A3TL A 101      18.934  -3.560  -3.537 -0.23 -0.05    +0.174 C 
DOCKED: ATOM     13  C20A3TL A 101      19.126  -2.714  -4.781 -0.31 -0.01    +0.042 C 
DOCKED: BRANCH  12  14
DOCKED: ATOM     14  N4 A3TL A 101      18.661  -4.940  -3.899 -0.13 +0.05    -0.324 N 
DOCKED: ATOM     15  C31A3TL A 101      17.690  -5.210  -4.779 -0.11 -0.05    +0.361 C 
DOCKED: ATOM     16  O8 A3TL A 101      17.105  -4.349  -5.397 -0.19 +0.05    -0.238 OA
DOCKED: ATOM     17  H4 A3TL A 101      19.206  -5.697  -3.487 +0.08 +0.00    +0.165 HD
DOCKED: BRANCH  15  18
DOCKED: ATOM     18  O9 A3TL A 101      17.324  -6.585  -5.035 -0.12 -0.06    -0.299 OA
DOCKED: BRANCH  18  19
DOCKED: ATOM     19  CA A3TL A 101      16.892  -7.494  -4.004 -0.11 +0.09    +0.219 C 
DOCKED: BRANCH  19  20
DOCKED: ATOM     20  C  A3TL A 101      16.344  -6.837  -2.740 -0.18 -0.01    -0.034 A 
DOCKED: ATOM     21  C13A3TL A 101      17.147  -6.786  -1.588 -0.25 +0.00    +0.009 A 
DOCKED: ATOM     22  C14A3TL A 101      16.701  -6.184  -0.410 -0.32 +0.00    +0.001 A 
DOCKED: ATOM     23  C15A3TL A 101      15.422  -5.640  -0.363 -0.36 +0.00    +0.000 A 
DOCKED: ATOM     24  C16A3TL A 101      14.613  -5.680  -1.498 -0.32 +0.00    +0.001 A 
DOCKED: ATOM     25  C17A3TL A 101      15.077  -6.277  -2.677 -0.27 +0.00    +0.009 A 
DOCKED: ENDBRANCH  19  20
DOCKED: ENDBRANCH  18  19
DOCKED: ENDBRANCH  15  18
DOCKED: ENDBRANCH  12  14
DOCKED: ENDBRANCH   9  12
DOCKED: ENDBRANCH   7   8
DOCKED: BRANCH   7  26
DOCKED: ATOM     26  C12A3TL A 101      17.653  -3.121   1.040 -0.44 -0.00    +0.009 C 
DOCKED: ATOM     27  CG1A3TL A 101      18.673  -4.249   0.921 -0.40 -0.00    +0.012 C 
DOCKED: ATOM     28  CG2A3TL A 101      18.284  -2.011   1.862 -0.41 -0.00    +0.012 C 
DOCKED: ENDBRANCH   7  26
DOCKED: ENDBRANCH   4   7
DOCKED: ENDBRANCH   2   3
DOCKED: BRANCH   2  29
DOCKED: ATOM     29  C3 A3TL A 101      17.487   1.379  -2.056 -0.37 -0.01    +0.066 C 
DOCKED: BRANCH  29  30
DOCKED: ATOM     30  C4 A3TL A 101      17.612   0.942  -3.495 -0.40 +0.01    -0.056 A 
DOCKED: ATOM     31  C5 A3TL A 101      18.809   1.129  -4.192 -0.51 -0.00    +0.007 A 
DOCKED: ATOM     32  C6 A3TL A 101      18.924   0.719  -5.525 -0.57 -0.00    +0.001 A 
DOCKED: ATOM     33  C7 A3TL A 101      17.824   0.142  -6.166 -0.53 -0.00    +0.000 A 
DOCKED: ATOM     34  C8 A3TL A 101      16.625  -0.028  -5.465 -0.48 -0.00    +0.001 A 
DOCKED: ATOM     35  C9 A3TL A 101      16.515   0.360  -4.133 -0.46 -0.00    +0.007 A 
DOCKED: ENDBRANCH  29  30
DOCKED: ENDBRANCH   2  29
DOCKED: ENDBRANCH   1   2
DOCKED: BRANCH   1  36
DOCKED: ATOM     36  O1 A3TL A 101      19.015   2.997  -0.339 -0.19 +0.24    -0.391 OA
DOCKED: ATOM     37  H1 A3TL A 101      19.832   3.065  -0.821 -0.11 -0.24    +0.210 HD
DOCKED: ENDBRANCH   1  36
DOCKED: BRANCH   1  38
DOCKED: ATOM     38  C52A3TL A 101      17.632   1.663   1.018 -0.23 -0.03    +0.171 C 
DOCKED: BRANCH  38  39
DOCKED: ATOM     39  C51A3TL A 101      17.850   2.407   2.327 -0.23 -0.03    +0.120 C 
DOCKED: BRANCH  39  40
DOCKED: ATOM     40  C53A3TL A 101      19.113   3.257   2.122 -0.25 -0.03    +0.066 C 
DOCKED: BRANCH  40  41
DOCKED: ATOM     41  C54A3TL A 101      19.189   4.461   3.028 -0.19 +0.01    -0.056 A 
DOCKED: ATOM     42  C55A3TL A 101      19.287   4.320   4.414 -0.22 -0.00    +0.007 A 
DOCKED: ATOM     43  C56A3TL A 101      19.369   5.437   5.248 -0.33 -0.00    +0.001 A 
DOCKED: ATOM     44  C57A3TL A 101      19.361   6.701   4.664 -0.25 +0.00    +0.000 A 
DOCKED: ATOM     45  C58A3TL A 101      19.270   6.845   3.274 -0.33 +0.00    +0.001 A 
DOCKED: ATOM     46  C59A3TL A 101      19.191   5.725   2.454 -0.30 -0.00    +0.007 A 
DOCKED: ENDBRANCH  40  41
DOCKED: ENDBRANCH  39  40
DOCKED: BRANCH  39  47
DOCKED: ATOM     47  N51A3TL A 101      18.000   1.455   3.429 -0.08 +0.10    -0.352 N 
DOCKED: ATOM     48  C61A3TL A 101      18.945   0.517   3.536 -0.23 -0.12    +0.241 C 
DOCKED: ATOM     49  O52A3TL A 101      19.785   0.323   2.677 -0.29 +0.26    -0.271 OA
DOCKED: ATOM     50  H51A3TL A 101      17.319   1.513   4.185 +0.05 -0.04    +0.163 HD
DOCKED: BRANCH  48  51
DOCKED: ATOM     51  C60A3TL A 101      18.908  -0.318   4.795 -0.34 -0.06    +0.180 C 
DOCKED: BRANCH  51  52
DOCKED: ATOM     52  N52A3TL A 101      18.959   0.534   5.977 -0.16 +0.05    -0.346 N 
DOCKED: ATOM     53  C69A3TL A 101      17.975   1.324   6.408 -0.28 -0.04    +0.240 C 
DOCKED: ATOM     54  O54A3TL A 101      16.891   1.400   5.844 -0.20 +0.07    -0.271 OA
DOCKED: ATOM     55  H52A3TL A 101      19.822   0.525   6.521 +0.12 -0.01    +0.163 HD
DOCKED: BRANCH  53  56
DOCKED: ATOM     56  C68A3TL A 101      18.298   2.156   7.638 -0.40 -0.03    +0.174 C 
DOCKED: ATOM     57  C70A3TL A 101      17.964   1.378   8.903 -0.53 -0.02    +0.042 C 
DOCKED: BRANCH  56  58
DOCKED: ATOM     58  N54A3TL A 101      17.564   3.401   7.621 -0.16 +0.09    -0.324 N 
DOCKED: ATOM     59  C81A3TL A 101      16.261   3.556   7.854 -0.17 -0.01    +0.361 C 
DOCKED: ATOM     60  O58A3TL A 101      15.600   2.912   8.649 -0.54 -0.05    -0.238 OA
DOCKED: ATOM     61  H54A3TL A 101      18.095   4.246   7.409 +0.04 -0.09    +0.165 HD
DOCKED: BRANCH  59  62
DOCKED: ATOM     62  O59A3TL A 101      15.597   4.580   7.093 -0.45 -0.02    -0.299 OA
DOCKED: BRANCH  62  63
DOCKED: ATOM     63  CA5A3TL A 101      16.291   5.465   6.204 -0.16 +0.01    +0.219 C 
DOCKED: BRANCH  63  64
DOCKED: ATOM     64  C50A3TL A 101      15.355   6.333   5.390 -0.20 -0.01    -0.034 A 
DOCKED: ATOM     65  C63A3TL A 101      13.974   6.270   5.636 -0.30 +0.00    +0.009 A 
DOCKED: ATOM     66  C64A3TL A 101      13.080   7.046   4.895 -0.30 +0.00    +0.001 A 
DOCKED: ATOM     67  C65A3TL A 101      13.580   7.896   3.911 -0.20 +0.00    +0.000 A 
DOCKED: ATOM     68  C66A3TL A 101      14.952   7.966   3.658 -0.17 +0.00    +0.001 A 
DOCKED: ATOM     69  C67A3TL A 101      15.840   7.182   4.401 -0.17 +0.00    +0.009 A 
DOCKED: ENDBRANCH  63  64
DOCKED: ENDBRANCH  62  63
DOCKED: ENDBRANCH  59  62
DOCKED: ENDBRANCH  56  58
DOCKED: ENDBRANCH  53  56
DOCKED: ENDBRANCH  51  52
DOCKED: BRANCH  51  70
DOCKED: ATOM     70  C62A3TL A 101      17.661  -1.203   4.855 -0.52 -0.00    +0.009 C 
DOCKED: ATOM     71  CG5A3TL A 101      17.243  -1.531   6.291 -0.53 -0.00    +0.012 C 
DOCKED: ATOM     72  CG6A3TL A 101      16.494  -0.557   4.123 -0.36 -0.00    +0.012 C 
DOCKED: ENDBRANCH  51  70
DOCKED: ENDBRANCH  48  51
DOCKED: ENDBRANCH  39  47
DOCKED: ENDBRANCH  38  39
DOCKED: BRANCH  38  73
DOCKED: ATOM     73  O51A3TL A 101      16.569   2.321   0.366 -0.39 -0.05    -0.391 OA
DOCKED: ATOM     74  H51A3TL A 101      16.913   2.644  -0.459 +0.13 -0.00    +0.210 HD
DOCKED: ENDBRANCH  38  73
DOCKED: ENDBRANCH   1  38
DOCKED: TORSDOF 27
DOCKED: TER
DOCKED: ENDMDL
________________________________________________________________________________


	BEGINNING GENETIC ALGORITHM DOCKING 6 of 10
Run: 6 Seed: 500668373 1374706560 [ Run 6 of 10 GA/GALS ]
Beginning LAMARCKIAN GENETIC ALGORITHM (LGA), with a maximum of 2500000 energy evaluations.

Final-Value: -11.694


	FINAL GENETIC ALGORITHM DOCKED STATE
	_______________________________________________


Detailed state:  trans 15.938 6.259 5.709 quatxyzw 0.104061 -0.515447 0.028954 -0.850087 center 17.085 -0.070 0.744 ntor 27 11.8744 144.5680 -179.9232 -125.8450 115.0321 -179.7957 -124.7704 35.1065 177.1718 162.2935 -41.5942 177.7510 179.1003 -91.0423 -153.5559 -42.7385 14.6367 84.8153 -6.8833 -4.3394 -64.6718 -26.4436 53.1475 31.1831 -115.7423 125.1722 38.4403
State:	 15.938   6.259   5.709   0.198 -0.979  0.055 -63.558     11.87  144.57 -179.92 -125.84  115.03 -179.80 -124.77   35.11  177.17  162.29  -41.59  177.75  179.10  -91.04 -153.56  -42.74   14.64   84.82   -6.88   -4.34  -64.67  -26.44   53.15   31.18 -115.74  125.17   38.44

DOCKED: MODEL        6
DOCKED: USER    Run = 6
DOCKED: USER    DPF = dock.dpf
DOCKED: USER  
DOCKED: USER    Estimated Free Energy of Binding    =   -5.29 kcal/mol  [=(1)+(2)+(3)-(4)]
DOCKED: USER    Estimated Inhibition Constant, Ki   =  133.17 uM (micromolar)  [Temperature = 298.15 K]
DOCKED: USER    
DOCKED: USER    (1) Final Intermolecular Energy     =  -13.34 kcal/mol
DOCKED: USER        vdW + Hbond + desolv Energy     =  -13.00 kcal/mol
DOCKED: USER        Electrostatic Energy            =   -0.35 kcal/mol
DOCKED: USER    (2) Final Total Internal Energy     =   +1.65 kcal/mol
DOCKED: USER    (3) Torsional Free Energy           =   +8.05 kcal/mol
DOCKED: USER    (4) Unbound System's Energy  [=(2)] =   +1.65 kcal/mol
DOCKED: USER    
DOCKED: USER    
DOCKED: USER    NEWDPF move lig2p3b.pdbqt
DOCKED: USER    NEWDPF about 17.085000 -0.070000 0.744000
DOCKED: USER    NEWDPF tran0 15.938410 6.259357 5.708865
DOCKED: USER    NEWDPF quaternion0 0.104061 -0.515447 0.028954 -0.850087
DOCKED: USER    NEWDPF axisangle0 0.197593 -0.978741 0.054979 -63.557808
DOCKED: USER    NEWDPF quat0 0.197593 -0.978741 0.054979 -63.557808
DOCKED: USER    NEWDPF dihe0 11.87 144.57 -179.92 -125.84 115.03 -179.80 -124.77 35.11 177.17 162.29 -41.59 177.75 179.10 -91.04 -153.56 -42.74 14.64 84.82 -6.88 -4.34 -64.67 -26.44 53.15 31.18 -115.74 125.17 38.44 
DOCKED: USER  keepresnum = 1 
DOCKED: USER  
DOCKED: REMARK  27 active torsions:
DOCKED: REMARK  status: ('A' for Active; 'I' for Inactive)
DOCKED: REMARK    1  A    between atoms: CA@A_1  and  C@A_3 
DOCKED: REMARK    2  A    between atoms: CA@A_1  and  O9@A_28 
DOCKED: REMARK    3  A    between atoms: CA5@A_2  and  C50@A_41 
DOCKED: REMARK    4  A    between atoms: CA5@A_2  and  O59@A_62 
DOCKED: REMARK    5  A    between atoms: C1@A_8  and  N1@A_9 
DOCKED: REMARK    6  A    between atoms: C1@A_8  and  C3@A_17 
DOCKED: REMARK    7  A    between atoms: C1@A_8  and  C2@A_13 
DOCKED: REMARK       I    between atoms: N1@A_9  and  C11@A_30 
DOCKED: REMARK    8  A    between atoms: O1@A_11  and  C2@A_13 
DOCKED: REMARK    9  A    between atoms: C2@A_13  and  C52@A_47 
DOCKED: REMARK   10  A    between atoms: N2@A_14  and  C10@A_29 
DOCKED: REMARK       I    between atoms: N2@A_14  and  C19@A_38 
DOCKED: REMARK   11  A    between atoms: C3@A_17  and  C4@A_18 
DOCKED: REMARK   12  A    between atoms: N4@A_19  and  C18@A_37 
DOCKED: REMARK       I    between atoms: N4@A_19  and  C31@A_40 
DOCKED: REMARK   13  A    between atoms: O9@A_28  and  C31@A_40 
DOCKED: REMARK   14  A    between atoms: C10@A_29  and  C11@A_30 
DOCKED: REMARK   15  A    between atoms: C10@A_29  and  C12@A_31 
DOCKED: REMARK   16  A    between atoms: C18@A_37  and  C19@A_38 
DOCKED: REMARK   17  A    between atoms: C51@A_42  and  C52@A_47 
DOCKED: REMARK   18  A    between atoms: C51@A_42  and  C53@A_51 
DOCKED: REMARK   19  A    between atoms: C51@A_42  and  N51@A_43 
DOCKED: REMARK       I    between atoms: N51@A_43  and  C61@A_64 
DOCKED: REMARK   20  A    between atoms: O51@A_45  and  C52@A_47 
DOCKED: REMARK   21  A    between atoms: N52@A_48  and  C60@A_63 
DOCKED: REMARK       I    between atoms: N52@A_48  and  C69@A_72 
DOCKED: REMARK   22  A    between atoms: C53@A_51  and  C54@A_52 
DOCKED: REMARK   23  A    between atoms: N54@A_53  and  C68@A_71 
DOCKED: REMARK       I    between atoms: N54@A_53  and  C81@A_74 
DOCKED: REMARK   24  A    between atoms: O59@A_62  and  C81@A_74 
DOCKED: REMARK   25  A    between atoms: C60@A_63  and  C61@A_64 
DOCKED: REMARK   26  A    between atoms: C60@A_63  and  C62@A_65 
DOCKED: REMARK   27  A    between atoms: C68@A_71  and  C69@A_72 
DOCKED: USER                              x       y       z     vdW  Elec       q    Type
DOCKED: USER                           _______ _______ _______ _____ _____    ______ ____
DOCKED: ROOT
DOCKED: ATOM      1  C2 A3TL A 101      17.365   6.496   8.179 +0.07 -0.02    +0.171 C 
DOCKED: ENDROOT
DOCKED: BRANCH   1   2
DOCKED: ATOM      2  C1 A3TL A 101      16.284   7.508   7.780 -0.11 +0.04    +0.120 C 
DOCKED: BRANCH   2   3
DOCKED: ATOM      3  N1 A3TL A 101      15.855   7.337   6.384 -0.03 -0.11    -0.352 N 
DOCKED: ATOM      4  C11A3TL A 101      16.682   7.447   5.336 -0.10 +0.09    +0.241 C 
DOCKED: ATOM      5  O2 A3TL A 101      17.844   7.827   5.445 -0.12 -0.19    -0.271 OA
DOCKED: ATOM      6  H1 A3TL A 101      14.874   7.122   6.203 +0.06 +0.04    +0.163 HD
DOCKED: BRANCH   4   7
DOCKED: ATOM      7  C10A3TL A 101      16.117   7.090   3.983 -0.16 +0.04    +0.180 C 
DOCKED: BRANCH   7   8
DOCKED: ATOM      8  N2 A3TL A 101      14.823   7.705   3.757 -0.07 -0.08    -0.346 N 
DOCKED: ATOM      9  C19A3TL A 101      13.772   7.016   3.302 -0.09 +0.05    +0.240 C 
DOCKED: ATOM     10  O4 A3TL A 101      13.873   5.890   2.836 -0.30 -0.04    -0.271 OA
DOCKED: ATOM     11  H2 A3TL A 101      14.711   8.700   3.952 +0.05 +0.04    +0.163 HD
DOCKED: BRANCH   9  12
DOCKED: ATOM     12  C18A3TL A 101      12.440   7.723   3.396 -0.18 +0.03    +0.174 C 
DOCKED: ATOM     13  C20A3TL A 101      11.814   7.455   4.752 +0.25 +0.01    +0.042 C 
DOCKED: BRANCH  12  14
DOCKED: ATOM     14  N4 A3TL A 101      11.507   7.394   2.333 -0.11 -0.05    -0.324 N 
DOCKED: ATOM     15  C31A3TL A 101      10.579   6.452   2.538 -0.24 +0.04    +0.361 C 
DOCKED: ATOM     16  O8 A3TL A 101      10.387   5.945   3.621 -0.20 -0.03    -0.238 OA
DOCKED: ATOM     17  H4 A3TL A 101      11.558   7.877   1.436 +0.08 +0.03    +0.165 HD
DOCKED: BRANCH  15  18
DOCKED: ATOM     18  O9 A3TL A 101       9.741   6.026   1.440 -0.24 -0.03    -0.299 OA
DOCKED: BRANCH  18  19
DOCKED: ATOM     19  CA A3TL A 101       9.637   6.750   0.198 -0.24 +0.02    +0.219 C 
DOCKED: BRANCH  19  20
DOCKED: ATOM     20  C  A3TL A 101      10.341   6.108  -0.995 -0.47 -0.00    -0.034 A 
DOCKED: ATOM     21  C13A3TL A 101      11.744   6.132  -1.060 +0.19 +0.00    +0.009 A 
DOCKED: ATOM     22  C14A3TL A 101      12.438   5.548  -2.121 -0.28 +0.00    +0.001 A 
DOCKED: ATOM     23  C15A3TL A 101      11.727   4.945  -3.153 -0.20 +0.00    +0.000 A 
DOCKED: ATOM     24  C16A3TL A 101      10.335   4.910  -3.102 +0.52 +0.00    +0.001 A 
DOCKED: ATOM     25  C17A3TL A 101       9.650   5.491  -2.027 -0.40 +0.00    +0.009 A 
DOCKED: ENDBRANCH  19  20
DOCKED: ENDBRANCH  18  19
DOCKED: ENDBRANCH  15  18
DOCKED: ENDBRANCH  12  14
DOCKED: ENDBRANCH   9  12
DOCKED: ENDBRANCH   7   8
DOCKED: BRANCH   7  26
DOCKED: ATOM     26  C12A3TL A 101      17.051   7.468   2.817 -0.30 +0.00    +0.009 C 
DOCKED: ATOM     27  CG1A3TL A 101      16.326   8.238   1.717 +0.81 +0.00    +0.012 C 
DOCKED: ATOM     28  CG2A3TL A 101      18.227   8.313   3.274 -0.31 +0.01    +0.012 C 
DOCKED: ENDBRANCH   7  26
DOCKED: ENDBRANCH   4   7
DOCKED: ENDBRANCH   2   3
DOCKED: BRANCH   2  29
DOCKED: ATOM     29  C3 A3TL A 101      15.115   7.412   8.772 -0.10 +0.02    +0.066 C 
DOCKED: BRANCH  29  30
DOCKED: ATOM     30  C4 A3TL A 101      15.229   6.168   9.615 -0.14 -0.01    -0.056 A 
DOCKED: ATOM     31  C5 A3TL A 101      14.800   4.932   9.120 -0.28 +0.00    +0.007 A 
DOCKED: ATOM     32  C6 A3TL A 101      14.911   3.778   9.903 +0.10 +0.00    +0.001 A 
DOCKED: ATOM     33  C7 A3TL A 101      15.433   3.870  11.196 -0.29 +0.00    +0.000 A 
DOCKED: ATOM     34  C8 A3TL A 101      15.847   5.112  11.689 -0.22 +0.00    +0.001 A 
DOCKED: ATOM     35  C9 A3TL A 101      15.757   6.258  10.905 -0.10 +0.00    +0.007 A 
DOCKED: ENDBRANCH  29  30
DOCKED: ENDBRANCH   2  29
DOCKED: ENDBRANCH   1   2
DOCKED: BRANCH   1  36
DOCKED: ATOM     36  O1 A3TL A 101      17.636   6.625   9.550 -0.03 +0.10    -0.391 OA
DOCKED: ATOM     37  H1 A3TL A 101      18.424   6.136   9.761 -0.51 -0.23    +0.210 HD
DOCKED: ENDBRANCH   1  36
DOCKED: BRANCH   1  38
DOCKED: ATOM     38  C52A3TL A 101      17.004   5.027   7.943 -0.19 -0.04    +0.171 C 
DOCKED: BRANCH  38  39
DOCKED: ATOM     39  C51A3TL A 101      17.827   4.301   6.889 -0.25 -0.04    +0.120 C 
DOCKED: BRANCH  39  40
DOCKED: ATOM     40  C53A3TL A 101      17.548   5.029   5.565 -0.23 -0.01    +0.066 C 
DOCKED: BRANCH  40  41
DOCKED: ATOM     41  C54A3TL A 101      18.767   5.185   4.689 -0.24 +0.01    -0.056 A 
DOCKED: ATOM     42  C55A3TL A 101      19.995   5.584   5.220 -0.36 -0.00    +0.007 A 
DOCKED: ATOM     43  C56A3TL A 101      21.123   5.715   4.408 -0.44 -0.00    +0.001 A 
DOCKED: ATOM     44  C57A3TL A 101      20.998   5.430   3.051 +0.59 -0.00    +0.000 A 
DOCKED: ATOM     45  C58A3TL A 101      19.768   5.024   2.516 -0.30 -0.00    +0.001 A 
DOCKED: ATOM     46  C59A3TL A 101      18.654   4.895   3.336 -0.23 -0.00    +0.007 A 
DOCKED: ENDBRANCH  40  41
DOCKED: ENDBRANCH  39  40
DOCKED: BRANCH  39  47
DOCKED: ATOM     47  N51A3TL A 101      17.441   2.890   6.833 -0.12 +0.08    -0.352 N 
DOCKED: ATOM     48  C61A3TL A 101      17.993   1.894   7.530 -0.35 -0.04    +0.241 C 
DOCKED: ATOM     49  O52A3TL A 101      18.937   2.056   8.281 -0.65 +0.06    -0.271 OA
DOCKED: ATOM     50  H51A3TL A 101      16.678   2.645   6.201 -0.42 -0.06    +0.163 HD
DOCKED: BRANCH  48  51
DOCKED: ATOM     51  C60A3TL A 101      17.385   0.526   7.322 -0.40 -0.02    +0.180 C 
DOCKED: BRANCH  51  52
DOCKED: ATOM     52  N52A3TL A 101      17.745  -0.002   6.012 -0.15 +0.04    -0.346 N 
DOCKED: ATOM     53  C69A3TL A 101      16.912  -0.597   5.158 -0.32 -0.02    +0.240 C 
DOCKED: ATOM     54  O54A3TL A 101      15.719  -0.747   5.392 -0.23 -0.01    -0.271 OA
DOCKED: ATOM     55  H52A3TL A 101      18.719   0.092   5.723 +0.13 -0.03    +0.163 HD
DOCKED: BRANCH  53  56
DOCKED: ATOM     56  C68A3TL A 101      17.547  -1.109   3.877 -0.32 -0.03    +0.174 C 
DOCKED: ATOM     57  C70A3TL A 101      18.722  -0.225   3.479 -0.39 -0.02    +0.042 C 
DOCKED: BRANCH  56  58
DOCKED: ATOM     58  N54A3TL A 101      16.578  -1.145   2.804 -0.15 -0.01    -0.324 N 
DOCKED: ATOM     59  C81A3TL A 101      16.836  -1.325   1.509 -0.19 +0.01    +0.361 C 
DOCKED: ATOM     60  O58A3TL A 101      17.710  -2.039   1.051 -0.22 +0.05    -0.238 OA
DOCKED: ATOM     61  H54A3TL A 101      15.599  -1.020   3.064 +0.13 +0.03    +0.165 HD
DOCKED: BRANCH  59  62
DOCKED: ATOM     62  O59A3TL A 101      15.995  -0.607   0.589 -0.82 -0.08    -0.299 OA
DOCKED: BRANCH  62  63
DOCKED: ATOM     63  CA5A3TL A 101      16.303   0.710   0.116 -0.29 +0.04    +0.219 C 
DOCKED: BRANCH  63  64
DOCKED: ATOM     64  C50A3TL A 101      16.743   0.727  -1.332 -0.35 +0.00    -0.034 A 
DOCKED: ATOM     65  C63A3TL A 101      17.536   1.789  -1.796 -0.30 -0.00    +0.009 A 
DOCKED: ATOM     66  C64A3TL A 101      17.948   1.844  -3.129 -0.27 -0.00    +0.001 A 
DOCKED: ATOM     67  C65A3TL A 101      17.571   0.821  -3.995 -0.46 -0.00    +0.000 A 
DOCKED: ATOM     68  C66A3TL A 101      16.782  -0.240  -3.545 -0.40 -0.00    +0.001 A 
DOCKED: ATOM     69  C67A3TL A 101      16.368  -0.286  -2.210 -0.39 -0.00    +0.009 A 
DOCKED: ENDBRANCH  63  64
DOCKED: ENDBRANCH  62  63
DOCKED: ENDBRANCH  59  62
DOCKED: ENDBRANCH  56  58
DOCKED: ENDBRANCH  53  56
DOCKED: ENDBRANCH  51  52
DOCKED: BRANCH  51  70
DOCKED: ATOM     70  C62A3TL A 101      17.819  -0.461   8.409 -0.49 -0.00    +0.009 C 
DOCKED: ATOM     71  CG5A3TL A 101      19.313  -0.785   8.345 -0.09 -0.00    +0.012 C 
DOCKED: ATOM     72  CG6A3TL A 101      17.473   0.062   9.795 +0.18 -0.00    +0.012 C 
DOCKED: ENDBRANCH  51  70
DOCKED: ENDBRANCH  48  51
DOCKED: ENDBRANCH  39  47
DOCKED: ENDBRANCH  38  39
DOCKED: BRANCH  38  73
DOCKED: ATOM     73  O51A3TL A 101      17.242   4.351   9.157 -0.13 +0.14    -0.391 OA
DOCKED: ATOM     74  H51A3TL A 101      18.004   4.758   9.553 -0.19 -0.17    +0.210 HD
DOCKED: ENDBRANCH  38  73
DOCKED: ENDBRANCH   1  38
DOCKED: TORSDOF 27
DOCKED: TER
DOCKED: ENDMDL
________________________________________________________________________________


	BEGINNING GENETIC ALGORITHM DOCKING 7 of 10
Run: 7 Seed: 462042261 565762814 [ Run 7 of 10 GA/GALS ]
Beginning LAMARCKIAN GENETIC ALGORITHM (LGA), with a maximum of 2500000 energy evaluations.

Final-Value: -23.847


	FINAL GENETIC ALGORITHM DOCKED STATE
	_______________________________________________


Detailed state:  trans 18.419 -0.292 2.518 quatxyzw -0.488222 -0.341582 0.523057 -0.609403 center 17.085 -0.070 0.744 ntor 27 101.0930 -127.8465 158.7278 -59.8650 35.5835 138.2872 -49.0551 53.5308 22.4884 -123.6028 -35.2332 -65.2859 159.5234 92.8596 179.4482 129.4903 -157.5924 -48.6171 25.2419 -58.1498 73.2057 -159.4439 -35.1748 171.9126 -128.7734 116.7957 -179.4206
State:	 18.419  -0.292   2.518  -0.616 -0.431  0.660 -104.907    101.09 -127.85  158.73  -59.86   35.58  138.29  -49.06   53.53   22.49 -123.60  -35.23  -65.29  159.52   92.86  179.45  129.49 -157.59  -48.62   25.24  -58.15   73.21 -159.44  -35.17  171.91 -128.77  116.80 -179.42

DOCKED: MODEL        7
DOCKED: USER    Run = 7
DOCKED: USER    DPF = dock.dpf
DOCKED: USER  
DOCKED: USER    Estimated Free Energy of Binding    =   -8.64 kcal/mol  [=(1)+(2)+(3)-(4)]
DOCKED: USER    Estimated Inhibition Constant, Ki   =  464.00 nM (nanomolar)  [Temperature = 298.15 K]
DOCKED: USER    
DOCKED: USER    (1) Final Intermolecular Energy     =  -16.69 kcal/mol
DOCKED: USER        vdW + Hbond + desolv Energy     =  -16.43 kcal/mol
DOCKED: USER        Electrostatic Energy            =   -0.27 kcal/mol
DOCKED: USER    (2) Final Total Internal Energy     =   -7.15 kcal/mol
DOCKED: USER    (3) Torsional Free Energy           =   +8.05 kcal/mol
DOCKED: USER    (4) Unbound System's Energy  [=(2)] =   -7.15 kcal/mol
DOCKED: USER    
DOCKED: USER    
DOCKED: USER    NEWDPF move lig2p3b.pdbqt
DOCKED: USER    NEWDPF about 17.085000 -0.070000 0.744000
DOCKED: USER    NEWDPF tran0 18.419123 -0.291608 2.518327
DOCKED: USER    NEWDPF quaternion0 -0.488222 -0.341582 0.523057 -0.609403
DOCKED: USER    NEWDPF axisangle0 -0.615773 -0.430823 0.659709 -104.907260
DOCKED: USER    NEWDPF quat0 -0.615773 -0.430823 0.659709 -104.907260
DOCKED: USER    NEWDPF dihe0 101.09 -127.85 158.73 -59.86 35.58 138.29 -49.06 53.53 22.49 -123.60 -35.23 -65.29 159.52 92.86 179.45 129.49 -157.59 -48.62 25.24 -58.15 73.21 -159.44 -35.17 171.91 -128.77 116.80 -179.42 
DOCKED: USER  keepresnum = 1 
DOCKED: USER  
DOCKED: REMARK  27 active torsions:
DOCKED: REMARK  status: ('A' for Active; 'I' for Inactive)
DOCKED: REMARK    1  A    between atoms: CA@A_1  and  C@A_3 
DOCKED: REMARK    2  A    between atoms: CA@A_1  and  O9@A_28 
DOCKED: REMARK    3  A    between atoms: CA5@A_2  and  C50@A_41 
DOCKED: REMARK    4  A    between atoms: CA5@A_2  and  O59@A_62 
DOCKED: REMARK    5  A    between atoms: C1@A_8  and  N1@A_9 
DOCKED: REMARK    6  A    between atoms: C1@A_8  and  C3@A_17 
DOCKED: REMARK    7  A    between atoms: C1@A_8  and  C2@A_13 
DOCKED: REMARK       I    between atoms: N1@A_9  and  C11@A_30 
DOCKED: REMARK    8  A    between atoms: O1@A_11  and  C2@A_13 
DOCKED: REMARK    9  A    between atoms: C2@A_13  and  C52@A_47 
DOCKED: REMARK   10  A    between atoms: N2@A_14  and  C10@A_29 
DOCKED: REMARK       I    between atoms: N2@A_14  and  C19@A_38 
DOCKED: REMARK   11  A    between atoms: C3@A_17  and  C4@A_18 
DOCKED: REMARK   12  A    between atoms: N4@A_19  and  C18@A_37 
DOCKED: REMARK       I    between atoms: N4@A_19  and  C31@A_40 
DOCKED: REMARK   13  A    between atoms: O9@A_28  and  C31@A_40 
DOCKED: REMARK   14  A    between atoms: C10@A_29  and  C11@A_30 
DOCKED: REMARK   15  A    between atoms: C10@A_29  and  C12@A_31 
DOCKED: REMARK   16  A    between atoms: C18@A_37  and  C19@A_38 
DOCKED: REMARK   17  A    between atoms: C51@A_42  and  C52@A_47 
DOCKED: REMARK   18  A    between atoms: C51@A_42  and  C53@A_51 
DOCKED: REMARK   19  A    between atoms: C51@A_42  and  N51@A_43 
DOCKED: REMARK       I    between atoms: N51@A_43  and  C61@A_64 
DOCKED: REMARK   20  A    between atoms: O51@A_45  and  C52@A_47 
DOCKED: REMARK   21  A    between atoms: N52@A_48  and  C60@A_63 
DOCKED: REMARK       I    between atoms: N52@A_48  and  C69@A_72 
DOCKED: REMARK   22  A    between atoms: C53@A_51  and  C54@A_52 
DOCKED: REMARK   23  A    between atoms: N54@A_53  and  C68@A_71 
DOCKED: REMARK       I    between atoms: N54@A_53  and  C81@A_74 
DOCKED: REMARK   24  A    between atoms: O59@A_62  and  C81@A_74 
DOCKED: REMARK   25  A    between atoms: C60@A_63  and  C61@A_64 
DOCKED: REMARK   26  A    between atoms: C60@A_63  and  C62@A_65 
DOCKED: REMARK   27  A    between atoms: C68@A_71  and  C69@A_72 
DOCKED: USER                              x       y       z     vdW  Elec       q    Type
DOCKED: USER                           _______ _______ _______ _____ _____    ______ ____
DOCKED: ROOT
DOCKED: ATOM      1  C2 A3TL A 101      19.100   2.405   1.844 -0.23 -0.09    +0.171 C 
DOCKED: ENDROOT
DOCKED: BRANCH   1   2
DOCKED: ATOM      2  C1 A3TL A 101      18.053   1.621   1.044 -0.24 -0.04    +0.120 C 
DOCKED: BRANCH   2   3
DOCKED: ATOM      3  N1 A3TL A 101      18.233   0.168   1.172 -0.03 +0.14    -0.352 N 
DOCKED: ATOM      4  C11A3TL A 101      17.929  -0.705   0.202 -0.16 -0.07    +0.241 C 
DOCKED: ATOM      5  O2 A3TL A 101      17.354  -0.376  -0.831 -0.16 +0.04    -0.271 OA
DOCKED: ATOM      6  H1 A3TL A 101      18.610  -0.196   2.048 +0.11 -0.09    +0.163 HD
DOCKED: BRANCH   4   7
DOCKED: ATOM      7  C10A3TL A 101      18.319  -2.144   0.437 -0.24 -0.06    +0.180 C 
DOCKED: BRANCH   7   8
DOCKED: ATOM      8  N2 A3TL A 101      18.051  -2.974  -0.722 -0.07 +0.08    -0.346 N 
DOCKED: ATOM      9  C19A3TL A 101      16.965  -3.748  -0.813 -0.20 -0.00    +0.240 C 
DOCKED: ATOM     10  O4 A3TL A 101      16.243  -3.987   0.144 -0.27 -0.04    -0.271 OA
DOCKED: ATOM     11  H2 A3TL A 101      18.716  -2.967  -1.496 +0.05 -0.06    +0.163 HD
DOCKED: BRANCH   9  12
DOCKED: ATOM     12  C18A3TL A 101      16.686  -4.319  -2.184 -0.18 -0.01    +0.174 C 
DOCKED: ATOM     13  C20A3TL A 101      17.167  -5.756  -2.247 -0.24 +0.00    +0.042 C 
DOCKED: BRANCH  12  14
DOCKED: ATOM     14  N4 A3TL A 101      17.242  -3.549  -3.282 -0.04 +0.08    -0.324 N 
DOCKED: ATOM     15  C31A3TL A 101      18.568  -3.514  -3.456 -0.12 -0.09    +0.361 C 
DOCKED: ATOM     16  O8 A3TL A 101      19.333  -4.204  -2.820 -0.18 +0.08    -0.238 OA
DOCKED: ATOM     17  H4 A3TL A 101      16.627  -3.038  -3.916 -0.45 -0.08    +0.165 HD
DOCKED: BRANCH  15  18
DOCKED: ATOM     18  O9 A3TL A 101      19.132  -2.639  -4.460 -0.56 +0.06    -0.299 OA
DOCKED: BRANCH  18  19
DOCKED: ATOM     19  CA A3TL A 101      18.472  -2.336  -5.705 -0.33 -0.04    +0.219 C 
DOCKED: BRANCH  19  20
DOCKED: ATOM     20  C  A3TL A 101      17.929  -3.542  -6.469 -0.31 +0.01    -0.034 A 
DOCKED: ATOM     21  C13A3TL A 101      17.818  -3.476  -7.868 -0.34 -0.01    +0.009 A 
DOCKED: ATOM     22  C14A3TL A 101      17.342  -4.555  -8.616 -0.26 -0.00    +0.001 A 
DOCKED: ATOM     23  C15A3TL A 101      16.946  -5.718  -7.963 -0.16 -0.00    +0.000 A 
DOCKED: ATOM     24  C16A3TL A 101      17.053  -5.800  -6.576 -0.18 -0.00    +0.001 A 
DOCKED: ATOM     25  C17A3TL A 101      17.543  -4.715  -5.838 -0.23 -0.00    +0.009 A 
DOCKED: ENDBRANCH  19  20
DOCKED: ENDBRANCH  18  19
DOCKED: ENDBRANCH  15  18
DOCKED: ENDBRANCH  12  14
DOCKED: ENDBRANCH   9  12
DOCKED: ENDBRANCH   7   8
DOCKED: BRANCH   7  26
DOCKED: ATOM     26  C12A3TL A 101      19.800  -2.314   0.830 -0.43 -0.01    +0.009 C 
DOCKED: ATOM     27  CG1A3TL A 101      20.360  -3.672   0.417 -0.48 -0.01    +0.012 C 
DOCKED: ATOM     28  CG2A3TL A 101      20.684  -1.243   0.217 -0.45 -0.02    +0.012 C 
DOCKED: ENDBRANCH   7  26
DOCKED: ENDBRANCH   4   7
DOCKED: ENDBRANCH   2   3
DOCKED: BRANCH   2  29
DOCKED: ATOM     29  C3 A3TL A 101      16.650   2.081   1.467 -0.27 +0.01    +0.066 C 
DOCKED: BRANCH  29  30
DOCKED: ATOM     30  C4 A3TL A 101      16.460   3.550   1.184 -0.29 -0.01    -0.056 A 
DOCKED: ATOM     31  C5 A3TL A 101      16.105   4.431   2.211 -0.23 +0.00    +0.007 A 
DOCKED: ATOM     32  C6 A3TL A 101      15.934   5.794   1.947 -0.36 +0.00    +0.001 A 
DOCKED: ATOM     33  C7 A3TL A 101      16.096   6.269   0.643 -0.10 +0.00    +0.000 A 
DOCKED: ATOM     34  C8 A3TL A 101      16.437   5.379  -0.381 -0.57 +0.00    +0.001 A 
DOCKED: ATOM     35  C9 A3TL A 101      16.628   4.026  -0.117 -0.46 +0.00    +0.007 A 
DOCKED: ENDBRANCH  29  30
DOCKED: ENDBRANCH   2  29
DOCKED: ENDBRANCH   1   2
DOCKED: BRANCH   1  36
DOCKED: ATOM     36  O1 A3TL A 101      18.981   3.772   1.548 -0.13 +0.14    -0.391 OA
DOCKED: ATOM     37  H1 A3TL A 101      19.398   3.950   0.713 +0.14 -0.10    +0.210 HD
DOCKED: ENDBRANCH   1  36
DOCKED: BRANCH   1  38
DOCKED: ATOM     38  C52A3TL A 101      18.991   2.278   3.365 -0.04 -0.08    +0.171 C 
DOCKED: BRANCH  38  39
DOCKED: ATOM     39  C51A3TL A 101      18.396   3.475   4.092 -0.21 -0.03    +0.120 C 
DOCKED: BRANCH  39  40
DOCKED: ATOM     40  C53A3TL A 101      19.455   4.586   4.008 -0.15 -0.02    +0.066 C 
DOCKED: BRANCH  40  41
DOCKED: ATOM     41  C54A3TL A 101      18.872   5.975   3.920 -0.24 -0.01    -0.056 A 
DOCKED: ATOM     42  C55A3TL A 101      17.660   6.293   4.535 -0.19 +0.00    +0.007 A 
DOCKED: ATOM     43  C56A3TL A 101      17.130   7.583   4.461 -0.19 +0.00    +0.001 A 
DOCKED: ATOM     44  C57A3TL A 101      17.846   8.553   3.764 -0.27 +0.00    +0.000 A 
DOCKED: ATOM     45  C58A3TL A 101      19.066   8.238   3.151 -0.25 +0.00    +0.001 A 
DOCKED: ATOM     46  C59A3TL A 101      19.584   6.951   3.235 -0.35 +0.00    +0.007 A 
DOCKED: ENDBRANCH  40  41
DOCKED: ENDBRANCH  39  40
DOCKED: BRANCH  39  47
DOCKED: ATOM     47  N51A3TL A 101      18.081   3.118   5.477 -0.10 +0.08    -0.352 N 
DOCKED: ATOM     48  C61A3TL A 101      18.901   2.513   6.339 -0.27 -0.04    +0.241 C 
DOCKED: ATOM     49  O52A3TL A 101      20.021   2.144   6.040 +0.08 -0.01    -0.271 OA
DOCKED: ATOM     50  H51A3TL A 101      17.148   3.355   5.813 -0.10 -0.05    +0.163 HD
DOCKED: BRANCH  48  51
DOCKED: ATOM     51  C60A3TL A 101      18.350   2.290   7.729 -0.39 -0.04    +0.180 C 
DOCKED: BRANCH  51  52
DOCKED: ATOM     52  N52A3TL A 101      18.007   3.561   8.355 -0.16 +0.17    -0.346 N 
DOCKED: ATOM     53  C69A3TL A 101      17.348   3.709   9.504 -0.24 -0.11    +0.240 C 
DOCKED: ATOM     54  O54A3TL A 101      16.970   2.758  10.178 -0.11 +0.17    -0.271 OA
DOCKED: ATOM     55  H52A3TL A 101      18.295   4.411   7.871 -0.10 -0.13    +0.163 HD
DOCKED: BRANCH  53  56
DOCKED: ATOM     56  C68A3TL A 101      17.066   5.144   9.915 -0.17 -0.04    +0.174 C 
DOCKED: ATOM     57  C70A3TL A 101      16.660   5.203  11.382 -0.22 +0.01    +0.042 C 
DOCKED: BRANCH  56  58
DOCKED: ATOM     58  N54A3TL A 101      16.021   5.715   9.095 -0.06 -0.03    -0.324 N 
DOCKED: ATOM     59  C81A3TL A 101      15.621   5.276   7.903 -0.13 +0.05    +0.361 C 
DOCKED: ATOM     60  O58A3TL A 101      15.573   4.110   7.553 -0.70 -0.04    -0.238 OA
DOCKED: ATOM     61  H54A3TL A 101      15.542   6.536   9.467 +0.06 +0.04    +0.165 HD
DOCKED: BRANCH  59  62
DOCKED: ATOM     62  O59A3TL A 101      15.210   6.283   6.961 -0.13 -0.06    -0.299 OA
DOCKED: BRANCH  62  63
DOCKED: ATOM     63  CA5A3TL A 101      13.877   6.805   6.910 -0.19 +0.06    +0.219 C 
DOCKED: BRANCH  63  64
DOCKED: ATOM     64  C50A3TL A 101      13.340   6.909   5.498 -0.26 -0.01    -0.034 A 
DOCKED: ATOM     65  C63A3TL A 101      12.617   8.052   5.121 -0.19 +0.00    +0.009 A 
DOCKED: ATOM     66  C64A3TL A 101      12.096   8.175   3.831 -0.23 +0.00    +0.001 A 
DOCKED: ATOM     67  C65A3TL A 101      12.313   7.149   2.915 -0.22 +0.00    +0.000 A 
DOCKED: ATOM     68  C66A3TL A 101      13.030   6.007   3.279 -0.41 +0.00    +0.001 A 
DOCKED: ATOM     69  C67A3TL A 101      13.545   5.889   4.574 -0.25 +0.00    +0.009 A 
DOCKED: ENDBRANCH  63  64
DOCKED: ENDBRANCH  62  63
DOCKED: ENDBRANCH  59  62
DOCKED: ENDBRANCH  56  58
DOCKED: ENDBRANCH  53  56
DOCKED: ENDBRANCH  51  52
DOCKED: BRANCH  51  70
DOCKED: ATOM     70  C62A3TL A 101      17.121   1.377   7.716 -0.51 -0.00    +0.009 C 
DOCKED: ATOM     71  CG5A3TL A 101      16.738   0.929   6.303 -0.44 -0.00    +0.012 C 
DOCKED: ATOM     72  CG6A3TL A 101      17.337   0.154   8.594 -0.47 -0.00    +0.012 C 
DOCKED: ENDBRANCH  51  70
DOCKED: ENDBRANCH  48  51
DOCKED: ENDBRANCH  39  47
DOCKED: ENDBRANCH  38  39
DOCKED: BRANCH  38  73
DOCKED: ATOM     73  O51A3TL A 101      18.125   1.196   3.621 -0.09 +0.12    -0.391 OA
DOCKED: ATOM     74  H51A3TL A 101      18.457   0.457   3.125 +0.13 -0.08    +0.210 HD
DOCKED: ENDBRANCH  38  73
DOCKED: ENDBRANCH   1  38
DOCKED: TORSDOF 27
DOCKED: TER
DOCKED: ENDMDL
________________________________________________________________________________


	BEGINNING GENETIC ALGORITHM DOCKING 8 of 10
Run: 8 Seed: 499395193 1848360333 [ Run 8 of 10 GA/GALS ]
Beginning LAMARCKIAN GENETIC ALGORITHM (LGA), with a maximum of 2500000 energy evaluations.

Final-Value: -23.974


	FINAL GENETIC ALGORITHM DOCKED STATE
	_______________________________________________


Detailed state:  trans 15.809 4.204 2.912 quatxyzw -0.718653 0.083631 -0.322755 -0.610224 center 17.085 -0.070 0.744 ntor 27 -111.4530 142.2788 -123.8898 17.6468 141.2369 99.1417 164.4042 80.1378 -51.5444 -99.3066 -81.2262 -174.3601 100.5096 -167.2476 -175.2454 79.3576 -178.2147 -176.9653 131.7451 66.6866 -7.5505 178.7963 57.1193 61.4747 159.1331 153.1159 89.1233
State:	 15.809   4.204   2.912  -0.907  0.106 -0.407 -104.789   -111.45  142.28 -123.89   17.65  141.24   99.14  164.40   80.14  -51.54  -99.31  -81.23 -174.36  100.51 -167.25 -175.25   79.36 -178.21 -176.97  131.75   66.69   -7.55  178.80   57.12   61.47  159.13  153.12   89.12

DOCKED: MODEL        8
DOCKED: USER    Run = 8
DOCKED: USER    DPF = dock.dpf
DOCKED: USER  
DOCKED: USER    Estimated Free Energy of Binding    =   -9.06 kcal/mol  [=(1)+(2)+(3)-(4)]
DOCKED: USER    Estimated Inhibition Constant, Ki   =  230.06 nM (nanomolar)  [Temperature = 298.15 K]
DOCKED: USER    
DOCKED: USER    (1) Final Intermolecular Energy     =  -17.11 kcal/mol
DOCKED: USER        vdW + Hbond + desolv Energy     =  -17.41 kcal/mol
DOCKED: USER        Electrostatic Energy            =   +0.30 kcal/mol
DOCKED: USER    (2) Final Total Internal Energy     =   -6.86 kcal/mol
DOCKED: USER    (3) Torsional Free Energy           =   +8.05 kcal/mol
DOCKED: USER    (4) Unbound System's Energy  [=(2)] =   -6.86 kcal/mol
DOCKED: USER    
DOCKED: USER    
DOCKED: USER    NEWDPF move lig2p3b.pdbqt
DOCKED: USER    NEWDPF about 17.085000 -0.070000 0.744000
DOCKED: USER    NEWDPF tran0 15.808525 4.204120 2.911516
DOCKED: USER    NEWDPF quaternion0 -0.718653 0.083631 -0.322755 -0.610224
DOCKED: USER    NEWDPF axisangle0 -0.907128 0.105564 -0.407401 -104.788667
DOCKED: USER    NEWDPF quat0 -0.907128 0.105564 -0.407401 -104.788667
DOCKED: USER    NEWDPF dihe0 -111.45 142.28 -123.89 17.65 141.24 99.14 164.40 80.14 -51.54 -99.31 -81.23 -174.36 100.51 -167.25 -175.25 79.36 -178.21 -176.97 131.75 66.69 -7.55 178.80 57.12 61.47 159.13 153.12 89.12 
DOCKED: USER  keepresnum = 1 
DOCKED: USER  
DOCKED: REMARK  27 active torsions:
DOCKED: REMARK  status: ('A' for Active; 'I' for Inactive)
DOCKED: REMARK    1  A    between atoms: CA@A_1  and  C@A_3 
DOCKED: REMARK    2  A    between atoms: CA@A_1  and  O9@A_28 
DOCKED: REMARK    3  A    between atoms: CA5@A_2  and  C50@A_41 
DOCKED: REMARK    4  A    between atoms: CA5@A_2  and  O59@A_62 
DOCKED: REMARK    5  A    between atoms: C1@A_8  and  N1@A_9 
DOCKED: REMARK    6  A    between atoms: C1@A_8  and  C3@A_17 
DOCKED: REMARK    7  A    between atoms: C1@A_8  and  C2@A_13 
DOCKED: REMARK       I    between atoms: N1@A_9  and  C11@A_30 
DOCKED: REMARK    8  A    between atoms: O1@A_11  and  C2@A_13 
DOCKED: REMARK    9  A    between atoms: C2@A_13  and  C52@A_47 
DOCKED: REMARK   10  A    between atoms: N2@A_14  and  C10@A_29 
DOCKED: REMARK       I    between atoms: N2@A_14  and  C19@A_38 
DOCKED: REMARK   11  A    between atoms: C3@A_17  and  C4@A_18 
DOCKED: REMARK   12  A    between atoms: N4@A_19  and  C18@A_37 
DOCKED: REMARK       I    between atoms: N4@A_19  and  C31@A_40 
DOCKED: REMARK   13  A    between atoms: O9@A_28  and  C31@A_40 
DOCKED: REMARK   14  A    between atoms: C10@A_29  and  C11@A_30 
DOCKED: REMARK   15  A    between atoms: C10@A_29  and  C12@A_31 
DOCKED: REMARK   16  A    between atoms: C18@A_37  and  C19@A_38 
DOCKED: REMARK   17  A    between atoms: C51@A_42  and  C52@A_47 
DOCKED: REMARK   18  A    between atoms: C51@A_42  and  C53@A_51 
DOCKED: REMARK   19  A    between atoms: C51@A_42  and  N51@A_43 
DOCKED: REMARK       I    between atoms: N51@A_43  and  C61@A_64 
DOCKED: REMARK   20  A    between atoms: O51@A_45  and  C52@A_47 
DOCKED: REMARK   21  A    between atoms: N52@A_48  and  C60@A_63 
DOCKED: REMARK       I    between atoms: N52@A_48  and  C69@A_72 
DOCKED: REMARK   22  A    between atoms: C53@A_51  and  C54@A_52 
DOCKED: REMARK   23  A    between atoms: N54@A_53  and  C68@A_71 
DOCKED: REMARK       I    between atoms: N54@A_53  and  C81@A_74 
DOCKED: REMARK   24  A    between atoms: O59@A_62  and  C81@A_74 
DOCKED: REMARK   25  A    between atoms: C60@A_63  and  C61@A_64 
DOCKED: REMARK   26  A    between atoms: C60@A_63  and  C62@A_65 
DOCKED: REMARK   27  A    between atoms: C68@A_71  and  C69@A_72 
DOCKED: USER                              x       y       z     vdW  Elec       q    Type
DOCKED: USER                           _______ _______ _______ _____ _____    ______ ____
DOCKED: ROOT
DOCKED: ATOM      1  C2 A3TL A 101      18.007   2.506   3.600 -0.21 -0.04    +0.171 C 
DOCKED: ENDROOT
DOCKED: BRANCH   1   2
DOCKED: ATOM      2  C1 A3TL A 101      17.909   3.167   2.219 -0.24 -0.02    +0.120 C 
DOCKED: BRANCH   2   3
DOCKED: ATOM      3  N1 A3TL A 101      17.297   2.276   1.222 -0.10 +0.03    -0.352 N 
DOCKED: ATOM      4  C11A3TL A 101      17.764   1.053   0.935 -0.17 -0.06    +0.241 C 
DOCKED: ATOM      5  O2 A3TL A 101      18.819   0.623   1.389 -0.14 +0.16    -0.271 OA
DOCKED: ATOM      6  H1 A3TL A 101      16.471   2.607   0.722 +0.08 +0.02    +0.163 HD
DOCKED: BRANCH   4   7
DOCKED: ATOM      7  C10A3TL A 101      16.930   0.210   0.002 -0.29 -0.00    +0.180 C 
DOCKED: BRANCH   7   8
DOCKED: ATOM      8  N2 A3TL A 101      17.502   0.147  -1.330 -0.10 +0.07    -0.346 N 
DOCKED: ATOM      9  C19A3TL A 101      18.700   0.663  -1.621 -0.27 -0.13    +0.240 C 
DOCKED: ATOM     10  O4 A3TL A 101      19.299   1.410  -0.860 -0.26 +0.26    -0.271 OA
DOCKED: ATOM     11  H2 A3TL A 101      16.969  -0.307  -2.072 +0.09 -0.02    +0.163 HD
DOCKED: BRANCH   9  12
DOCKED: ATOM     12  C18A3TL A 101      19.273   0.265  -2.961 -0.29 -0.08    +0.174 C 
DOCKED: ATOM     13  C20A3TL A 101      18.632   1.095  -4.057 -0.56 -0.01    +0.042 C 
DOCKED: BRANCH  12  14
DOCKED: ATOM     14  N4 A3TL A 101      19.163  -1.151  -3.267 -0.13 +0.12    -0.324 N 
DOCKED: ATOM     15  C31A3TL A 101      17.975  -1.659  -3.615 -0.14 -0.09    +0.361 C 
DOCKED: ATOM     16  O8 A3TL A 101      17.000  -0.970  -3.820 -0.24 +0.05    -0.238 OA
DOCKED: ATOM     17  H4 A3TL A 101      19.984  -1.753  -3.217 -0.36 -0.09    +0.165 HD
DOCKED: BRANCH  15  18
DOCKED: ATOM     18  O9 A3TL A 101      17.834  -3.088  -3.784 -0.14 +0.07    -0.299 OA
DOCKED: BRANCH  18  19
DOCKED: ATOM     19  CA A3TL A 101      17.998  -3.754  -5.051 -0.22 -0.06    +0.219 C 
DOCKED: BRANCH  19  20
DOCKED: ATOM     20  C  A3TL A 101      16.793  -4.564  -5.526 -0.24 +0.01    -0.034 A 
DOCKED: ATOM     21  C13A3TL A 101      16.146  -5.425  -4.625 -0.21 +0.00    +0.009 A 
DOCKED: ATOM     22  C14A3TL A 101      15.032  -6.178  -5.003 -0.25 +0.00    +0.001 A 
DOCKED: ATOM     23  C15A3TL A 101      14.560  -6.091  -6.309 -0.28 +0.00    +0.000 A 
DOCKED: ATOM     24  C16A3TL A 101      15.189  -5.238  -7.214 -0.29 +0.00    +0.001 A 
DOCKED: ATOM     25  C17A3TL A 101      16.299  -4.481  -6.819 -0.30 -0.00    +0.009 A 
DOCKED: ENDBRANCH  19  20
DOCKED: ENDBRANCH  18  19
DOCKED: ENDBRANCH  15  18
DOCKED: ENDBRANCH  12  14
DOCKED: ENDBRANCH   9  12
DOCKED: ENDBRANCH   7   8
DOCKED: BRANCH   7  26
DOCKED: ATOM     26  C12A3TL A 101      16.717  -1.229   0.513 -0.39 +0.00    +0.009 C 
DOCKED: ATOM     27  CG1A3TL A 101      17.967  -2.092   0.360 -0.33 -0.00    +0.012 C 
DOCKED: ATOM     28  CG2A3TL A 101      16.307  -1.264   1.974 -0.34 +0.00    +0.012 C 
DOCKED: ENDBRANCH   7  26
DOCKED: ENDBRANCH   4   7
DOCKED: ENDBRANCH   2   3
DOCKED: BRANCH   2  29
DOCKED: ATOM     29  C3 A3TL A 101      17.163   4.502   2.353 -0.29 -0.00    +0.066 C 
DOCKED: BRANCH  29  30
DOCKED: ATOM     30  C4 A3TL A 101      18.111   5.607   2.746 -0.22 -0.00    -0.056 A 
DOCKED: ATOM     31  C5 A3TL A 101      17.623   6.807   3.275 -0.23 +0.00    +0.007 A 
DOCKED: ATOM     32  C6 A3TL A 101      18.505   7.829   3.642 -0.28 +0.00    +0.001 A 
DOCKED: ATOM     33  C7 A3TL A 101      19.879   7.655   3.455 -0.35 +0.00    +0.000 A 
DOCKED: ATOM     34  C8 A3TL A 101      20.357   6.458   2.911 -0.31 +0.00    +0.001 A 
DOCKED: ATOM     35  C9 A3TL A 101      19.484   5.431   2.565 -0.32 -0.00    +0.007 A 
DOCKED: ENDBRANCH  29  30
DOCKED: ENDBRANCH   2  29
DOCKED: ENDBRANCH   1   2
DOCKED: BRANCH   1  36
DOCKED: ATOM     36  O1 A3TL A 101      19.317   2.042   3.799 -0.05 +0.22    -0.391 OA
DOCKED: ATOM     37  H1 A3TL A 101      19.903   2.785   3.884 -0.42 -0.19    +0.210 HD
DOCKED: ENDBRANCH   1  36
DOCKED: BRANCH   1  38
DOCKED: ATOM     38  C52A3TL A 101      17.684   3.417   4.786 -0.17 -0.04    +0.171 C 
DOCKED: BRANCH  38  39
DOCKED: ATOM     39  C51A3TL A 101      17.417   2.717   6.110 -0.21 -0.03    +0.120 C 
DOCKED: BRANCH  39  40
DOCKED: ATOM     40  C53A3TL A 101      16.708   1.401   5.753 +0.15 -0.02    +0.066 C 
DOCKED: BRANCH  40  41
DOCKED: ATOM     41  C54A3TL A 101      17.616   0.196   5.777 -0.37 +0.01    -0.056 A 
DOCKED: ATOM     42  C55A3TL A 101      17.900  -0.521   4.613 -0.41 -0.00    +0.007 A 
DOCKED: ATOM     43  C56A3TL A 101      18.750  -1.628   4.638 -0.49 -0.00    +0.001 A 
DOCKED: ATOM     44  C57A3TL A 101      19.319  -1.999   5.855 -0.38 -0.00    +0.000 A 
DOCKED: ATOM     45  C58A3TL A 101      19.040  -1.277   7.023 -0.50 -0.00    +0.001 A 
DOCKED: ATOM     46  C59A3TL A 101      18.194  -0.175   6.984 -0.51 -0.00    +0.007 A 
DOCKED: ENDBRANCH  40  41
DOCKED: ENDBRANCH  39  40
DOCKED: BRANCH  39  47
DOCKED: ATOM     47  N51A3TL A 101      16.595   3.568   6.973 -0.08 +0.06    -0.352 N 
DOCKED: ATOM     48  C61A3TL A 101      16.922   4.781   7.425 -0.18 -0.04    +0.241 C 
DOCKED: ATOM     49  O52A3TL A 101      17.995   5.307   7.191 -0.06 +0.15    -0.271 OA
DOCKED: ATOM     50  H51A3TL A 101      15.688   3.199   7.256 -0.34 -0.01    +0.163 HD
DOCKED: BRANCH  48  51
DOCKED: ATOM     51  C60A3TL A 101      15.880   5.475   8.271 -0.19 +0.02    +0.180 C 
DOCKED: BRANCH  51  52
DOCKED: ATOM     52  N52A3TL A 101      14.881   6.120   7.427 -0.12 -0.08    -0.346 N 
DOCKED: ATOM     53  C69A3TL A 101      15.111   7.124   6.580 -0.11 +0.06    +0.240 C 
DOCKED: ATOM     54  O54A3TL A 101      16.224   7.605   6.409 -0.09 -0.10    -0.271 OA
DOCKED: ATOM     55  H52A3TL A 101      13.924   5.773   7.490 +0.05 +0.05    +0.163 HD
DOCKED: BRANCH  53  56
DOCKED: ATOM     56  C68A3TL A 101      13.888   7.657   5.853 -0.16 +0.04    +0.174 C 
DOCKED: ATOM     57  C70A3TL A 101      12.942   8.332   6.837 -0.07 +0.01    +0.042 C 
DOCKED: BRANCH  56  58
DOCKED: ATOM     58  N54A3TL A 101      13.197   6.591   5.163 -0.19 -0.08    -0.324 N 
DOCKED: ATOM     59  C81A3TL A 101      13.629   5.933   4.088 -0.17 +0.06    +0.361 C 
DOCKED: ATOM     60  O58A3TL A 101      14.788   5.646   3.848 -0.26 -0.03    -0.238 OA
DOCKED: ATOM     61  H54A3TL A 101      12.288   6.315   5.536 +0.07 +0.04    +0.165 HD
DOCKED: BRANCH  59  62
DOCKED: ATOM     62  O59A3TL A 101      12.622   5.532   3.143 -0.32 -0.02    -0.299 OA
DOCKED: BRANCH  62  63
DOCKED: ATOM     63  CA5A3TL A 101      11.283   6.043   3.166 -0.38 +0.02    +0.219 C 
DOCKED: BRANCH  63  64
DOCKED: ATOM     64  C50A3TL A 101      10.940   6.847   1.930 -0.33 -0.00    -0.034 A 
DOCKED: ATOM     65  C63A3TL A 101      10.749   8.233   2.045 -0.21 +0.00    +0.009 A 
DOCKED: ATOM     66  C64A3TL A 101      10.418   9.005   0.929 -0.19 +0.00    +0.001 A 
DOCKED: ATOM     67  C65A3TL A 101      10.290   8.380  -0.309 -0.30 +0.00    +0.000 A 
DOCKED: ATOM     68  C66A3TL A 101      10.477   7.002  -0.435 -0.38 +0.00    +0.001 A 
DOCKED: ATOM     69  C67A3TL A 101      10.804   6.235   0.688 -0.39 +0.00    +0.009 A 
DOCKED: ENDBRANCH  63  64
DOCKED: ENDBRANCH  62  63
DOCKED: ENDBRANCH  59  62
DOCKED: ENDBRANCH  56  58
DOCKED: ENDBRANCH  53  56
DOCKED: ENDBRANCH  51  52
DOCKED: BRANCH  51  70
DOCKED: ATOM     70  C62A3TL A 101      15.189   4.506   9.233 -0.35 +0.00    +0.009 C 
DOCKED: ATOM     71  CG5A3TL A 101      16.059   4.159  10.443 -0.37 +0.00    +0.012 C 
DOCKED: ATOM     72  CG6A3TL A 101      13.857   5.065   9.710 -0.41 +0.00    +0.012 C 
DOCKED: ENDBRANCH  51  70
DOCKED: ENDBRANCH  48  51
DOCKED: ENDBRANCH  39  47
DOCKED: ENDBRANCH  38  39
DOCKED: BRANCH  38  73
DOCKED: ATOM     73  O51A3TL A 101      18.818   4.229   4.995 -0.13 +0.10    -0.391 OA
DOCKED: ATOM     74  H51A3TL A 101      19.578   3.683   4.834 -0.15 -0.09    +0.210 HD
DOCKED: ENDBRANCH  38  73
DOCKED: ENDBRANCH   1  38
DOCKED: TORSDOF 27
DOCKED: TER
DOCKED: ENDMDL
________________________________________________________________________________


	BEGINNING GENETIC ALGORITHM DOCKING 9 of 10
Run: 9 Seed: 1750669769 581428509 [ Run 9 of 10 GA/GALS ]
Beginning LAMARCKIAN GENETIC ALGORITHM (LGA), with a maximum of 2500000 energy evaluations.

Final-Value: -11.805


	FINAL GENETIC ALGORITHM DOCKED STATE
	_______________________________________________


Detailed state:  trans 16.688 3.033 1.926 quatxyzw 0.896663 -0.164620 0.407565 0.052787 center 17.085 -0.070 0.744 ntor 27 45.1210 179.6517 -86.2752 162.4577 153.3439 -51.5526 -179.9173 -145.1575 161.3802 -138.8263 103.5389 157.3639 178.6033 168.0267 -179.6804 -86.7687 -23.5585 -165.1378 -113.4948 -161.1856 70.1455 -91.0258 -105.7544 -66.2433 -53.7139 56.3916 -32.5133
State:	 16.688   3.033   1.926   0.898 -0.165  0.408 173.948     45.12  179.65  -86.28  162.46  153.34  -51.55 -179.92 -145.16  161.38 -138.83  103.54  157.36  178.60  168.03 -179.68  -86.77  -23.56 -165.14 -113.49 -161.19   70.15  -91.03 -105.75  -66.24  -53.71   56.39  -32.51

DOCKED: MODEL        9
DOCKED: USER    Run = 9
DOCKED: USER    DPF = dock.dpf
DOCKED: USER  
DOCKED: USER    Estimated Free Energy of Binding    =   -1.46 kcal/mol  [=(1)+(2)+(3)-(4)]
DOCKED: USER    Estimated Inhibition Constant, Ki   =   85.46 mM (millimolar)  [Temperature = 298.15 K]
DOCKED: USER    
DOCKED: USER    (1) Final Intermolecular Energy     =   -9.51 kcal/mol
DOCKED: USER        vdW + Hbond + desolv Energy     =   -9.32 kcal/mol
DOCKED: USER        Electrostatic Energy            =   -0.19 kcal/mol
DOCKED: USER    (2) Final Total Internal Energy     =   -2.29 kcal/mol
DOCKED: USER    (3) Torsional Free Energy           =   +8.05 kcal/mol
DOCKED: USER    (4) Unbound System's Energy  [=(2)] =   -2.29 kcal/mol
DOCKED: USER    
DOCKED: USER    
DOCKED: USER    NEWDPF move lig2p3b.pdbqt
DOCKED: USER    NEWDPF about 17.085000 -0.070000 0.744000
DOCKED: USER    NEWDPF tran0 16.688445 3.033112 1.925638
DOCKED: USER    NEWDPF quaternion0 0.896663 -0.164620 0.407565 0.052787
DOCKED: USER    NEWDPF axisangle0 0.897915 -0.164850 0.408134 173.948197
DOCKED: USER    NEWDPF quat0 0.897915 -0.164850 0.408134 173.948197
DOCKED: USER    NEWDPF dihe0 45.12 179.65 -86.28 162.46 153.34 -51.55 -179.92 -145.16 161.38 -138.83 103.54 157.36 178.60 168.03 -179.68 -86.77 -23.56 -165.14 -113.49 -161.19 70.15 -91.03 -105.75 -66.24 -53.71 56.39 -32.51 
DOCKED: USER  keepresnum = 1 
DOCKED: USER  
DOCKED: REMARK  27 active torsions:
DOCKED: REMARK  status: ('A' for Active; 'I' for Inactive)
DOCKED: REMARK    1  A    between atoms: CA@A_1  and  C@A_3 
DOCKED: REMARK    2  A    between atoms: CA@A_1  and  O9@A_28 
DOCKED: REMARK    3  A    between atoms: CA5@A_2  and  C50@A_41 
DOCKED: REMARK    4  A    between atoms: CA5@A_2  and  O59@A_62 
DOCKED: REMARK    5  A    between atoms: C1@A_8  and  N1@A_9 
DOCKED: REMARK    6  A    between atoms: C1@A_8  and  C3@A_17 
DOCKED: REMARK    7  A    between atoms: C1@A_8  and  C2@A_13 
DOCKED: REMARK       I    between atoms: N1@A_9  and  C11@A_30 
DOCKED: REMARK    8  A    between atoms: O1@A_11  and  C2@A_13 
DOCKED: REMARK    9  A    between atoms: C2@A_13  and  C52@A_47 
DOCKED: REMARK   10  A    between atoms: N2@A_14  and  C10@A_29 
DOCKED: REMARK       I    between atoms: N2@A_14  and  C19@A_38 
DOCKED: REMARK   11  A    between atoms: C3@A_17  and  C4@A_18 
DOCKED: REMARK   12  A    between atoms: N4@A_19  and  C18@A_37 
DOCKED: REMARK       I    between atoms: N4@A_19  and  C31@A_40 
DOCKED: REMARK   13  A    between atoms: O9@A_28  and  C31@A_40 
DOCKED: REMARK   14  A    between atoms: C10@A_29  and  C11@A_30 
DOCKED: REMARK   15  A    between atoms: C10@A_29  and  C12@A_31 
DOCKED: REMARK   16  A    between atoms: C18@A_37  and  C19@A_38 
DOCKED: REMARK   17  A    between atoms: C51@A_42  and  C52@A_47 
DOCKED: REMARK   18  A    between atoms: C51@A_42  and  C53@A_51 
DOCKED: REMARK   19  A    between atoms: C51@A_42  and  N51@A_43 
DOCKED: REMARK       I    between atoms: N51@A_43  and  C61@A_64 
DOCKED: REMARK   20  A    between atoms: O51@A_45  and  C52@A_47 
DOCKED: REMARK   21  A    between atoms: N52@A_48  and  C60@A_63 
DOCKED: REMARK       I    between atoms: N52@A_48  and  C69@A_72 
DOCKED: REMARK   22  A    between atoms: C53@A_51  and  C54@A_52 
DOCKED: REMARK   23  A    between atoms: N54@A_53  and  C68@A_71 
DOCKED: REMARK       I    between atoms: N54@A_53  and  C81@A_74 
DOCKED: REMARK   24  A    between atoms: O59@A_62  and  C81@A_74 
DOCKED: REMARK   25  A    between atoms: C60@A_63  and  C61@A_64 
DOCKED: REMARK   26  A    between atoms: C60@A_63  and  C62@A_65 
DOCKED: REMARK   27  A    between atoms: C68@A_71  and  C69@A_72 
DOCKED: USER                              x       y       z     vdW  Elec       q    Type
DOCKED: USER                           _______ _______ _______ _____ _____    ______ ____
DOCKED: ROOT
DOCKED: ATOM      1  C2 A3TL A 101      18.193   1.734   3.985 -0.23 -0.05    +0.171 C 
DOCKED: ENDROOT
DOCKED: BRANCH   1   2
DOCKED: ATOM      2  C1 A3TL A 101      17.768   0.988   2.713 -0.25 -0.03    +0.120 C 
DOCKED: BRANCH   2   3
DOCKED: ATOM      3  N1 A3TL A 101      18.150   1.714   1.493 -0.05 +0.11    -0.352 N 
DOCKED: ATOM      4  C11A3TL A 101      18.607   1.113   0.386 -0.18 -0.13    +0.241 C 
DOCKED: ATOM      5  O2 A3TL A 101      18.866  -0.086   0.341 -0.13 +0.17    -0.271 OA
DOCKED: ATOM      6  H1 A3TL A 101      18.063   2.730   1.489 +0.10 -0.04    +0.163 HD
DOCKED: BRANCH   4   7
DOCKED: ATOM      7  C10A3TL A 101      18.807   1.986  -0.828 -0.32 -0.11    +0.180 C 
DOCKED: BRANCH   7   8
DOCKED: ATOM      8  N2 A3TL A 101      19.257   1.224  -1.976 -0.22 +0.27    -0.346 N 
DOCKED: ATOM      9  C19A3TL A 101      18.578   1.191  -3.127 -0.36 -0.08    +0.240 C 
DOCKED: ATOM     10  O4 A3TL A 101      17.432   1.608  -3.228 -0.24 +0.03    -0.271 OA
DOCKED: ATOM     11  H2 A3TL A 101      20.125   0.693  -1.904 -0.08 -0.22    +0.163 HD
DOCKED: BRANCH   9  12
DOCKED: ATOM     12  C18A3TL A 101      19.317   0.597  -4.303 +0.17 -0.04    +0.174 C 
DOCKED: ATOM     13  C20A3TL A 101      19.308   1.579  -5.460 -0.52 -0.01    +0.042 C 
DOCKED: BRANCH  12  14
DOCKED: ATOM     14  N4 A3TL A 101      18.822  -0.699  -4.733 -0.18 +0.05    -0.324 N 
DOCKED: ATOM     15  C31A3TL A 101      17.628  -0.783  -5.331 -0.23 -0.05    +0.361 C 
DOCKED: ATOM     16  O8 A3TL A 101      16.987   0.191  -5.656 -0.35 +0.01    -0.238 OA
DOCKED: ATOM     17  H4 A3TL A 101      19.381  -1.539  -4.581 +0.09 -0.02    +0.165 HD
DOCKED: BRANCH  15  18
DOCKED: ATOM     18  O9 A3TL A 101      17.074  -2.083  -5.635 -0.22 +0.06    -0.299 OA
DOCKED: BRANCH  18  19
DOCKED: ATOM     19  CA A3TL A 101      17.848  -3.298  -5.610 -0.25 -0.06    +0.219 C 
DOCKED: BRANCH  19  20
DOCKED: ATOM     20  C  A3TL A 101      17.868  -4.035  -4.273 -0.24 +0.01    -0.034 A 
DOCKED: ATOM     21  C13A3TL A 101      17.842  -3.295  -3.080 -0.23 -0.00    +0.009 A 
DOCKED: ATOM     22  C14A3TL A 101      17.844  -3.919  -1.830 -0.23 -0.00    +0.001 A 
DOCKED: ATOM     23  C15A3TL A 101      17.896  -5.307  -1.761 -0.23 +0.00    +0.000 A 
DOCKED: ATOM     24  C16A3TL A 101      17.920  -6.056  -2.936 -0.21 +0.00    +0.001 A 
DOCKED: ATOM     25  C17A3TL A 101      17.906  -5.419  -4.183 -0.23 -0.00    +0.009 A 
DOCKED: ENDBRANCH  19  20
DOCKED: ENDBRANCH  18  19
DOCKED: ENDBRANCH  15  18
DOCKED: ENDBRANCH  12  14
DOCKED: ENDBRANCH   9  12
DOCKED: ENDBRANCH   7   8
DOCKED: BRANCH   7  26
DOCKED: ATOM     26  C12A3TL A 101      17.540   2.770  -1.225 +0.02 -0.00    +0.009 C 
DOCKED: ATOM     27  CG1A3TL A 101      16.265   1.959  -1.017 +0.50 +0.00    +0.012 C 
DOCKED: ATOM     28  CG2A3TL A 101      17.398   4.065  -0.444 -0.19 -0.00    +0.012 C 
DOCKED: ENDBRANCH   7  26
DOCKED: ENDBRANCH   4   7
DOCKED: ENDBRANCH   2   3
DOCKED: BRANCH   2  29
DOCKED: ATOM     29  C3 A3TL A 101      18.335  -0.438   2.754 -0.33 -0.03    +0.066 C 
DOCKED: BRANCH  29  30
DOCKED: ATOM     30  C4 A3TL A 101      18.114  -1.064   4.108 -0.39 +0.02    -0.056 A 
DOCKED: ATOM     31  C5 A3TL A 101      16.865  -0.985   4.731 -0.31 -0.00    +0.007 A 
DOCKED: ATOM     32  C6 A3TL A 101      16.661  -1.570   5.986 -0.28 +0.00    +0.001 A 
DOCKED: ATOM     33  C7 A3TL A 101      17.722  -2.215   6.626 +1.12 -0.00    +0.000 A 
DOCKED: ATOM     34  C8 A3TL A 101      18.973  -2.277   6.002 -0.42 -0.00    +0.001 A 
DOCKED: ATOM     35  C9 A3TL A 101      19.172  -1.714   4.745 -0.41 -0.00    +0.007 A 
DOCKED: ENDBRANCH  29  30
DOCKED: ENDBRANCH   2  29
DOCKED: ENDBRANCH   1   2
DOCKED: BRANCH   1  36
DOCKED: ATOM     36  O1 A3TL A 101      19.199   1.002   4.636 -0.16 +0.14    -0.391 OA
DOCKED: ATOM     37  H1 A3TL A 101      19.008   0.967   5.566 +0.14 -0.04    +0.210 HD
DOCKED: ENDBRANCH   1  36
DOCKED: BRANCH   1  38
DOCKED: ATOM     38  C52A3TL A 101      18.754   3.140   3.761 -0.13 -0.06    +0.171 C 
DOCKED: BRANCH  38  39
DOCKED: ATOM     39  C51A3TL A 101      18.007   4.003   2.755 -0.22 -0.02    +0.120 C 
DOCKED: BRANCH  39  40
DOCKED: ATOM     40  C53A3TL A 101      19.080   4.582   1.819 -0.35 -0.01    +0.066 C 
DOCKED: BRANCH  40  41
DOCKED: ATOM     41  C54A3TL A 101      19.900   5.683   2.444 -0.25 +0.00    -0.056 A 
DOCKED: ATOM     42  C55A3TL A 101      19.622   7.028   2.189 +0.66 +0.00    +0.007 A 
DOCKED: ATOM     43  C56A3TL A 101      20.376   8.044   2.779 -0.33 +0.00    +0.001 A 
DOCKED: ATOM     44  C57A3TL A 101      21.411   7.686   3.639 +0.27 +0.00    +0.000 A 
DOCKED: ATOM     45  C58A3TL A 101      21.688   6.338   3.901 -0.34 +0.00    +0.001 A 
DOCKED: ATOM     46  C59A3TL A 101      20.928   5.336   3.310 +0.25 -0.00    +0.007 A 
DOCKED: ENDBRANCH  40  41
DOCKED: ENDBRANCH  39  40
DOCKED: BRANCH  39  47
DOCKED: ATOM     47  N51A3TL A 101      17.258   5.052   3.449 -0.05 -0.00    -0.352 N 
DOCKED: ATOM     48  C61A3TL A 101      16.623   6.077   2.876 -0.18 +0.03    +0.241 C 
DOCKED: ATOM     49  O52A3TL A 101      16.637   6.276   1.675 -0.24 -0.04    -0.271 OA
DOCKED: ATOM     50  H51A3TL A 101      17.217   4.994   4.466 +0.07 -0.01    +0.163 HD
DOCKED: BRANCH  48  51
DOCKED: ATOM     51  C60A3TL A 101      15.885   7.005   3.813 -0.17 +0.04    +0.180 C 
DOCKED: BRANCH  51  52
DOCKED: ATOM     52  N52A3TL A 101      16.186   6.678   5.201 -0.04 -0.07    -0.346 N 
DOCKED: ATOM     53  C69A3TL A 101      17.367   6.841   5.799 -0.12 +0.07    +0.240 C 
DOCKED: ATOM     54  O54A3TL A 101      18.340   7.315   5.227 -0.13 -0.15    -0.271 OA
DOCKED: ATOM     55  H52A3TL A 101      15.429   6.290   5.763 +0.06 +0.03    +0.163 HD
DOCKED: BRANCH  53  56
DOCKED: ATOM     56  C68A3TL A 101      17.437   6.370   7.242 -0.07 -0.01    +0.174 C 
DOCKED: ATOM     57  C70A3TL A 101      17.589   4.856   7.297 -0.21 -0.02    +0.042 C 
DOCKED: BRANCH  56  58
DOCKED: ATOM     58  N54A3TL A 101      16.253   6.770   7.969 -0.05 -0.06    -0.324 N 
DOCKED: ATOM     59  C81A3TL A 101      15.423   5.967   8.633 -0.09 +0.07    +0.361 C 
DOCKED: ATOM     60  O58A3TL A 101      15.743   4.966   9.251 -0.25 -0.03    -0.238 OA
DOCKED: ATOM     61  H54A3TL A 101      16.031   7.765   7.974 +0.04 +0.06    +0.165 HD
DOCKED: BRANCH  59  62
DOCKED: ATOM     62  O59A3TL A 101      14.032   6.332   8.610 -0.18 -0.09    -0.299 OA
DOCKED: BRANCH  62  63
DOCKED: ATOM     63  CA5A3TL A 101      13.566   7.597   8.123 -0.10 +0.06    +0.219 C 
DOCKED: BRANCH  63  64
DOCKED: ATOM     64  C50A3TL A 101      13.314   7.596   6.631 -0.12 -0.01    -0.034 A 
DOCKED: ATOM     65  C63A3TL A 101      13.056   6.379   5.979 +0.08 +0.00    +0.009 A 
DOCKED: ATOM     66  C64A3TL A 101      12.833   6.339   4.601 -0.38 +0.00    +0.001 A 
DOCKED: ATOM     67  C65A3TL A 101      12.858   7.529   3.878 -0.28 +0.00    +0.000 A 
DOCKED: ATOM     68  C66A3TL A 101      13.115   8.745   4.516 -0.18 +0.00    +0.001 A 
DOCKED: ATOM     69  C67A3TL A 101      13.343   8.777   5.895 -0.13 +0.00    +0.009 A 
DOCKED: ENDBRANCH  63  64
DOCKED: ENDBRANCH  62  63
DOCKED: ENDBRANCH  59  62
DOCKED: ENDBRANCH  56  58
DOCKED: ENDBRANCH  53  56
DOCKED: ENDBRANCH  51  52
DOCKED: BRANCH  51  70
DOCKED: ATOM     70  C62A3TL A 101      16.228   8.473   3.547 -0.26 +0.00    +0.009 C 
DOCKED: ATOM     71  CG5A3TL A 101      16.416   9.275   4.837 -0.17 +0.01    +0.012 C 
DOCKED: ATOM     72  CG6A3TL A 101      17.476   8.598   2.687 -0.17 +0.00    +0.012 C 
DOCKED: ENDBRANCH  51  70
DOCKED: ENDBRANCH  48  51
DOCKED: ENDBRANCH  39  47
DOCKED: ENDBRANCH  38  39
DOCKED: BRANCH  38  73
DOCKED: ATOM     73  O51A3TL A 101      18.664   3.814   4.996 -0.12 +0.10    -0.391 OA
DOCKED: ATOM     74  H51A3TL A 101      18.275   3.205   5.613 +0.11 -0.05    +0.210 HD
DOCKED: ENDBRANCH  38  73
DOCKED: ENDBRANCH   1  38
DOCKED: TORSDOF 27
DOCKED: TER
DOCKED: ENDMDL
________________________________________________________________________________


	BEGINNING GENETIC ALGORITHM DOCKING 10 of 10
Run: 10 Seed: 1392035260 1943008201 [ Run 10 of 10 GA/GALS ]
Beginning LAMARCKIAN GENETIC ALGORITHM (LGA), with a maximum of 2500000 energy evaluations.

Final-Value: 3.408


	FINAL GENETIC ALGORITHM DOCKED STATE
	_______________________________________________


Detailed state:  trans 16.312 1.718 0.523 quatxyzw -0.408022 0.013898 0.279691 0.868964 center 17.085 -0.070 0.744 ntor 27 -104.9407 -96.7875 -124.0415 179.7845 42.9887 161.7454 -17.5540 -179.9555 -7.8505 12.9244 105.5699 -167.8588 72.7576 23.0292 -176.6378 63.8658 -55.8448 -22.7172 161.7261 -24.2054 176.0384 -96.2657 19.5098 -180.0000 -24.9109 -52.2675 -9.5972
State:	 16.312   1.718   0.523  -0.824  0.028  0.565 59.323   -104.94  -96.79 -124.04  179.78   42.99  161.75  -17.55 -179.96   -7.85   12.92  105.57 -167.86   72.76   23.03 -176.64   63.87  -55.84  -22.72  161.73  -24.21  176.04  -96.27   19.51 -180.00  -24.91  -52.27   -9.60

DOCKED: MODEL       10
DOCKED: USER    Run = 10
DOCKED: USER    DPF = dock.dpf
DOCKED: USER  
DOCKED: USER    Estimated Free Energy of Binding    =  +11.45 kcal/mol  [=(1)+(2)+(3)-(4)]
DOCKED: USER    
DOCKED: USER    (1) Final Intermolecular Energy     =   +3.39 kcal/mol
DOCKED: USER        vdW + Hbond + desolv Energy     =   +3.19 kcal/mol
DOCKED: USER        Electrostatic Energy            =   +0.20 kcal/mol
DOCKED: USER    (2) Final Total Internal Energy     =   +0.02 kcal/mol
DOCKED: USER    (3) Torsional Free Energy           =   +8.05 kcal/mol
DOCKED: USER    (4) Unbound System's Energy  [=(2)] =   +0.02 kcal/mol
DOCKED: USER    
DOCKED: USER    
DOCKED: USER    NEWDPF move lig2p3b.pdbqt
DOCKED: USER    NEWDPF about 17.085000 -0.070000 0.744000
DOCKED: USER    NEWDPF tran0 16.312227 1.718487 0.522800
DOCKED: USER    NEWDPF quaternion0 -0.408022 0.013898 0.279691 0.868964
DOCKED: USER    NEWDPF axisangle0 -0.824494 0.028084 0.565174 59.323128
DOCKED: USER    NEWDPF quat0 -0.824494 0.028084 0.565174 59.323128
DOCKED: USER    NEWDPF dihe0 -104.94 -96.79 -124.04 179.78 42.99 161.75 -17.55 -179.96 -7.85 12.92 105.57 -167.86 72.76 23.03 -176.64 63.87 -55.84 -22.72 161.73 -24.21 176.04 -96.27 19.51 -180.00 -24.91 -52.27 -9.60 
DOCKED: USER  keepresnum = 1 
DOCKED: USER  
DOCKED: REMARK  27 active torsions:
DOCKED: REMARK  status: ('A' for Active; 'I' for Inactive)
DOCKED: REMARK    1  A    between atoms: CA@A_1  and  C@A_3 
DOCKED: REMARK    2  A    between atoms: CA@A_1  and  O9@A_28 
DOCKED: REMARK    3  A    between atoms: CA5@A_2  and  C50@A_41 
DOCKED: REMARK    4  A    between atoms: CA5@A_2  and  O59@A_62 
DOCKED: REMARK    5  A    between atoms: C1@A_8  and  N1@A_9 
DOCKED: REMARK    6  A    between atoms: C1@A_8  and  C3@A_17 
DOCKED: REMARK    7  A    between atoms: C1@A_8  and  C2@A_13 
DOCKED: REMARK       I    between atoms: N1@A_9  and  C11@A_30 
DOCKED: REMARK    8  A    between atoms: O1@A_11  and  C2@A_13 
DOCKED: REMARK    9  A    between atoms: C2@A_13  and  C52@A_47 
DOCKED: REMARK   10  A    between atoms: N2@A_14  and  C10@A_29 
DOCKED: REMARK       I    between atoms: N2@A_14  and  C19@A_38 
DOCKED: REMARK   11  A    between atoms: C3@A_17  and  C4@A_18 
DOCKED: REMARK   12  A    between atoms: N4@A_19  and  C18@A_37 
DOCKED: REMARK       I    between atoms: N4@A_19  and  C31@A_40 
DOCKED: REMARK   13  A    between atoms: O9@A_28  and  C31@A_40 
DOCKED: REMARK   14  A    between atoms: C10@A_29  and  C11@A_30 
DOCKED: REMARK   15  A    between atoms: C10@A_29  and  C12@A_31 
DOCKED: REMARK   16  A    between atoms: C18@A_37  and  C19@A_38 
DOCKED: REMARK   17  A    between atoms: C51@A_42  and  C52@A_47 
DOCKED: REMARK   18  A    between atoms: C51@A_42  and  C53@A_51 
DOCKED: REMARK   19  A    between atoms: C51@A_42  and  N51@A_43 
DOCKED: REMARK       I    between atoms: N51@A_43  and  C61@A_64 
DOCKED: REMARK   20  A    between atoms: O51@A_45  and  C52@A_47 
DOCKED: REMARK   21  A    between atoms: N52@A_48  and  C60@A_63 
DOCKED: REMARK       I    between atoms: N52@A_48  and  C69@A_72 
DOCKED: REMARK   22  A    between atoms: C53@A_51  and  C54@A_52 
DOCKED: REMARK   23  A    between atoms: N54@A_53  and  C68@A_71 
DOCKED: REMARK       I    between atoms: N54@A_53  and  C81@A_74 
DOCKED: REMARK   24  A    between atoms: O59@A_62  and  C81@A_74 
DOCKED: REMARK   25  A    between atoms: C60@A_63  and  C61@A_64 
DOCKED: REMARK   26  A    between atoms: C60@A_63  and  C62@A_65 
DOCKED: REMARK   27  A    between atoms: C68@A_71  and  C69@A_72 
DOCKED: USER                              x       y       z     vdW  Elec       q    Type
DOCKED: USER                           _______ _______ _______ _____ _____    ______ ____
DOCKED: ROOT
DOCKED: ATOM      1  C2 A3TL A 101      18.923   0.630   0.087 -0.24 -0.12    +0.171 C 
DOCKED: ENDROOT
DOCKED: BRANCH   1   2
DOCKED: ATOM      2  C1 A3TL A 101      18.533   1.259   1.430 -0.24 -0.06    +0.120 C 
DOCKED: BRANCH   2   3
DOCKED: ATOM      3  N1 A3TL A 101      17.764   0.331   2.272 -0.06 +0.09    -0.352 N 
DOCKED: ATOM      4  C11A3TL A 101      16.425   0.289   2.298 -0.30 +0.01    +0.241 C 
DOCKED: ATOM      5  O2 A3TL A 101      15.724   1.110   1.714 -0.21 -0.09    -0.271 OA
DOCKED: ATOM      6  H1 A3TL A 101      18.278  -0.317   2.870 +0.11 -0.06    +0.163 HD
DOCKED: BRANCH   4   7
DOCKED: ATOM      7  C10A3TL A 101      15.795  -0.824   3.098 +2.67 +0.03    +0.180 C 
DOCKED: BRANCH   7   8
DOCKED: ATOM      8  N2 A3TL A 101      15.948  -2.112   2.450 +1.60 -0.08    -0.346 N 
DOCKED: ATOM      9  C19A3TL A 101      17.053  -2.450   1.779 -0.26 -0.01    +0.240 C 
DOCKED: ATOM     10  O4 A3TL A 101      17.913  -1.636   1.470 -0.18 +0.08    -0.271 OA
DOCKED: ATOM     11  H2 A3TL A 101      15.184  -2.786   2.510 +0.53 +0.06    +0.163 HD
DOCKED: BRANCH   9  12
DOCKED: ATOM     12  C18A3TL A 101      17.174  -3.912   1.416 -0.35 -0.00    +0.174 C 
DOCKED: ATOM     13  C20A3TL A 101      18.629  -4.258   1.165 -0.17 -0.01    +0.042 C 
DOCKED: BRANCH  12  14
DOCKED: ATOM     14  N4 A3TL A 101      16.353  -4.323   0.290 -0.21 -0.03    -0.324 N 
DOCKED: ATOM     15  C31A3TL A 101      16.701  -3.954  -0.948 -0.13 +0.01    +0.361 C 
DOCKED: ATOM     16  O8 A3TL A 101      17.748  -3.400  -1.198 -0.16 +0.03    -0.238 OA
DOCKED: ATOM     17  H4 A3TL A 101      15.518  -4.889   0.442 +0.08 +0.03    +0.165 HD
DOCKED: BRANCH  15  18
DOCKED: ATOM     18  O9 A3TL A 101      15.815  -4.243  -2.052 -0.06 +0.01    -0.299 OA
DOCKED: BRANCH  18  19
DOCKED: ATOM     19  CA A3TL A 101      16.196  -5.054  -3.181 -0.08 -0.01    +0.219 C 
DOCKED: BRANCH  19  20
DOCKED: ATOM     20  C  A3TL A 101      17.061  -4.355  -4.227 -0.15 +0.01    -0.034 A 
DOCKED: ATOM     21  C13A3TL A 101      16.893  -4.675  -5.584 -0.25 -0.00    +0.009 A 
DOCKED: ATOM     22  C14A3TL A 101      17.647  -4.056  -6.583 -0.28 -0.00    +0.001 A 
DOCKED: ATOM     23  C15A3TL A 101      18.608  -3.114  -6.227 -0.35 -0.00    +0.000 A 
DOCKED: ATOM     24  C16A3TL A 101      18.785  -2.783  -4.885 -0.36 -0.00    +0.001 A 
DOCKED: ATOM     25  C17A3TL A 101      18.014  -3.404  -3.894 -0.25 -0.00    +0.009 A 
DOCKED: ENDBRANCH  19  20
DOCKED: ENDBRANCH  18  19
DOCKED: ENDBRANCH  15  18
DOCKED: ENDBRANCH  12  14
DOCKED: ENDBRANCH   9  12
DOCKED: ENDBRANCH   7   8
DOCKED: BRANCH   7  26
DOCKED: ATOM     26  C12A3TL A 101      16.349  -0.927   4.533 +0.01 +0.00    +0.009 C 
DOCKED: ATOM     27  CG1A3TL A 101      17.746  -1.539   4.575 -0.49 -0.00    +0.012 C 
DOCKED: ATOM     28  CG2A3TL A 101      16.415   0.425   5.221 -0.42 -0.00    +0.012 C 
DOCKED: ENDBRANCH   7  26
DOCKED: ENDBRANCH   4   7
DOCKED: ENDBRANCH   2   3
DOCKED: BRANCH   2  29
DOCKED: ATOM     29  C3 A3TL A 101      19.799   1.778   2.128 -0.01 -0.06    +0.066 C 
DOCKED: BRANCH  29  30
DOCKED: ATOM     30  C4 A3TL A 101      19.542   2.012   3.596 +2.06 +0.04    -0.056 A 
DOCKED: ATOM     31  C5 A3TL A 101      19.289   3.301   4.075 +0.43 -0.00    +0.007 A 
DOCKED: ATOM     32  C6 A3TL A 101      19.048   3.516   5.437 -0.33 -0.00    +0.001 A 
DOCKED: ATOM     33  C7 A3TL A 101      19.085   2.435   6.322 -0.30 -0.00    +0.000 A 
DOCKED: ATOM     34  C8 A3TL A 101      19.353   1.151   5.836 -0.03 -0.00    +0.001 A 
DOCKED: ATOM     35  C9 A3TL A 101      19.573   0.932   4.480 +0.06 -0.00    +0.007 A 
DOCKED: ENDBRANCH  29  30
DOCKED: ENDBRANCH   2  29
DOCKED: ENDBRANCH   1   2
DOCKED: BRANCH   1  36
DOCKED: ATOM     36  O1 A3TL A 101      20.091  -0.131   0.253 -0.21 +0.50    -0.391 OA
DOCKED: ATOM     37  H1 A3TL A 101      19.875  -0.941   0.701 +0.12 -0.24    +0.210 HD
DOCKED: ENDBRANCH   1  36
DOCKED: BRANCH   1  38
DOCKED: ATOM     38  C52A3TL A 101      17.878  -0.306  -0.525 -0.20 -0.05    +0.171 C 
DOCKED: BRANCH  38  39
DOCKED: ATOM     39  C51A3TL A 101      16.572   0.346  -0.955 -0.37 +0.00    +0.120 C 
DOCKED: BRANCH  39  40
DOCKED: ATOM     40  C53A3TL A 101      16.448   0.084  -2.464 -0.39 -0.00    +0.066 C 
DOCKED: BRANCH  40  41
DOCKED: ATOM     41  C54A3TL A 101      17.405   0.895  -3.302 -0.37 +0.01    -0.056 A 
DOCKED: ATOM     42  C55A3TL A 101      18.787   0.737  -3.181 -0.45 -0.00    +0.007 A 
DOCKED: ATOM     43  C56A3TL A 101      19.669   1.482  -3.967 +0.51 -0.00    +0.001 A 
DOCKED: ATOM     44  C57A3TL A 101      19.137   2.383  -4.886 -0.06 -0.00    +0.000 A 
DOCKED: ATOM     45  C58A3TL A 101      17.751   2.539  -5.013 +0.52 -0.00    +0.001 A 
DOCKED: ATOM     46  C59A3TL A 101      16.884   1.790  -4.227 +0.79 -0.00    +0.007 A 
DOCKED: ENDBRANCH  40  41
DOCKED: ENDBRANCH  39  40
DOCKED: BRANCH  39  47
DOCKED: ATOM     47  N51A3TL A 101      16.598   1.777  -0.645 -0.17 -0.03    -0.352 N 
DOCKED: ATOM     48  C61A3TL A 101      17.497   2.661  -1.083 -0.04 -0.04    +0.241 C 
DOCKED: ATOM     49  O52A3TL A 101      18.448   2.350  -1.776 -0.06 +0.11    -0.271 OA
DOCKED: ATOM     50  H51A3TL A 101      15.859   2.131  -0.038 +0.08 +0.07    +0.163 HD
DOCKED: BRANCH  48  51
DOCKED: ATOM     51  C60A3TL A 101      17.281   4.093  -0.652 +0.39 -0.01    +0.180 C 
DOCKED: BRANCH  51  52
DOCKED: ATOM     52  N52A3TL A 101      16.128   4.192   0.236 -0.25 -0.04    -0.346 N 
DOCKED: ATOM     53  C69A3TL A 101      15.381   5.282   0.420 -0.31 +0.05    +0.240 C 
DOCKED: ATOM     54  O54A3TL A 101      15.586   6.334  -0.172 +0.80 -0.08    -0.271 OA
DOCKED: ATOM     55  H52A3TL A 101      15.870   3.357   0.761 +0.08 +0.04    +0.163 HD
DOCKED: BRANCH  53  56
DOCKED: ATOM     56  C68A3TL A 101      14.266   5.142   1.442 +0.93 +0.03    +0.174 C 
DOCKED: ATOM     57  C70A3TL A 101      13.002   5.828   0.941 +1.93 +0.00    +0.042 C 
DOCKED: BRANCH  56  58
DOCKED: ATOM     58  N54A3TL A 101      14.661   5.712   2.711 -0.20 -0.05    -0.324 N 
DOCKED: ATOM     59  C81A3TL A 101      15.348   5.099   3.674 +0.02 +0.02    +0.361 C 
DOCKED: ATOM     60  O58A3TL A 101      16.236   4.282   3.504 -0.19 +0.01    -0.238 OA
DOCKED: ATOM     61  H54A3TL A 101      14.385   6.678   2.887 +0.08 +0.03    +0.165 HD
DOCKED: BRANCH  59  62
DOCKED: ATOM     62  O59A3TL A 101      14.999   5.450   5.025 -0.14 -0.02    -0.299 OA
DOCKED: BRANCH  62  63
DOCKED: ATOM     63  CA5A3TL A 101      15.904   5.303   6.126 -0.13 +0.01    +0.219 C 
DOCKED: BRANCH  63  64
DOCKED: ATOM     64  C50A3TL A 101      16.154   6.604   6.858 -0.15 -0.01    -0.034 A 
DOCKED: ATOM     65  C63A3TL A 101      15.713   7.809   6.287 -0.12 +0.00    +0.009 A 
DOCKED: ATOM     66  C64A3TL A 101      15.939   9.029   6.927 -0.09 +0.00    +0.001 A 
DOCKED: ATOM     67  C65A3TL A 101      16.601   9.036   8.153 -0.05 +0.00    +0.000 A 
DOCKED: ATOM     68  C66A3TL A 101      17.045   7.844   8.730 +0.01 +0.00    +0.001 A 
DOCKED: ATOM     69  C67A3TL A 101      16.819   6.626   8.081 -0.14 +0.00    +0.009 A 
DOCKED: ENDBRANCH  63  64
DOCKED: ENDBRANCH  62  63
DOCKED: ENDBRANCH  59  62
DOCKED: ENDBRANCH  56  58
DOCKED: ENDBRANCH  53  56
DOCKED: ENDBRANCH  51  52
DOCKED: BRANCH  51  70
DOCKED: ATOM     70  C62A3TL A 101      18.514   4.672   0.045 -0.02 -0.00    +0.009 C 
DOCKED: ATOM     71  CG5A3TL A 101      18.216   5.144   1.470 -0.37 -0.00    +0.012 C 
DOCKED: ATOM     72  CG6A3TL A 101      19.652   3.662   0.074 -0.30 -0.01    +0.012 C 
DOCKED: ENDBRANCH  51  70
DOCKED: ENDBRANCH  48  51
DOCKED: ENDBRANCH  39  47
DOCKED: ENDBRANCH  38  39
DOCKED: BRANCH  38  73
DOCKED: ATOM     73  O51A3TL A 101      18.450  -0.843  -1.697 -0.09 +0.15    -0.391 OA
DOCKED: ATOM     74  H51A3TL A 101      18.986  -1.580  -1.426 +0.11 -0.11    +0.210 HD
DOCKED: ENDBRANCH  38  73
DOCKED: ENDBRANCH   1  38
DOCKED: TORSDOF 27
DOCKED: TER
DOCKED: ENDMDL
________________________________________________________________________________

DPF> analysis                             # perform a ranked cluster analysis


		CLUSTER ANALYSIS OF CONFORMATIONS
		_________________________________

Number of conformations = 10

RMSD cluster analysis will be performed using the ligand atoms only (74 / 74 total atoms).

Outputting structurally similar clusters, ranked in order of increasing energy.


________________________________________________________________________________

Number of distinct conformational clusters found = 10,  out of 10 runs,
Using an rmsd-tolerance of 2.0 A


	CLUSTERING HISTOGRAM
	____________________

________________________________________________________________________________
     |           |     |           |     |                                    
Clus | Lowest    | Run | Mean      | Num | Histogram                          
-ter | Binding   |     | Binding   | in  |                                    
Rank | Energy    |     | Energy    | Clus|    5    10   15   20   25   30   35
_____|___________|_____|___________|_____|____:____|____:____|____:____|____:___
   1 |    -10.61 |   5 |    -10.61 |   1 |#
   2 |     -9.06 |   8 |     -9.06 |   1 |#
   3 |     -8.64 |   7 |     -8.64 |   1 |#
   4 |     -6.26 |   3 |     -6.26 |   1 |#
   5 |     -5.29 |   6 |     -5.29 |   1 |#
   6 |     -3.00 |   2 |     -3.00 |   1 |#
   7 |     -1.76 |   4 |     -1.76 |   1 |#
   8 |     -1.46 |   9 |     -1.46 |   1 |#
   9 |     +1.71 |   1 |     +1.71 |   1 |#
  10 |    +11.45 |  10 |    +11.45 |   1 |#
_____|___________|_____|___________|_____|______________________________________

	RMSD TABLE
	__________

_____________________________________________________________________
     |      |      |           |         |                 |
Rank | Sub- | Run  | Binding   | Cluster | Reference       | Grep
     | Rank |      | Energy    | RMSD    | RMSD            | Pattern
_____|______|______|___________|_________|_________________|___________
   1      1      5      -10.61      0.00      2.87           RANKING
   2      1      8       -9.06      0.00      3.78           RANKING
   3      1      7       -8.64      0.00      2.57           RANKING
   4      1      3       -6.26      0.00      2.31           RANKING
   5      1      6       -5.29      0.00      4.34           RANKING
   6      1      2       -3.00      0.00      3.28           RANKING
   7      1      4       -1.76      0.00      3.44           RANKING
   8      1      9       -1.46      0.00      3.20           RANKING
   9      1      1       +1.71      0.00      3.38           RANKING
  10      1     10      +11.45      0.00      3.73           RANKING
_______________________________________________________________________



	INFORMATION ENTROPY ANALYSIS FOR THIS CLUSTERING
	________________________________________________


Information entropy for this clustering = 1.00  (rmstol = 2.00 Angstrom)

_______________________________________________________________________


	STATISTICAL MECHANICAL ANALYSIS
	_______________________________


Partition function, Q =    10.06            at Temperature, T = 298.15 K
Free energy,        A ~ -1367.56 kcal/mol   at Temperature, T = 298.15 K
Internal energy,    U =    -3.35 kcal/mol   at Temperature, T = 298.15 K
Entropy,            S =     4.58 kcal/mol/K at Temperature, T = 298.15 K

_______________________________________________________________________


	LOWEST ENERGY DOCKED CONFORMATION from EACH CLUSTER
	___________________________________________________



Keeping original residue number (specified in the input PDBQ file) for outputting.

MODEL        5
USER    Run = 5
USER    Cluster Rank = 1
USER    Number of conformations in this cluster = 1
USER  
USER    RMSD from reference structure       = 2.873 A
USER  
USER    Estimated Free Energy of Binding    =  -10.61 kcal/mol  [=(1)+(2)+(3)-(4)]
USER    Estimated Inhibition Constant, Ki   =   16.76 nM (nanomolar)  [Temperature = 298.15 K]
USER    
USER    (1) Final Intermolecular Energy     =  -18.66 kcal/mol
USER        vdW + Hbond + desolv Energy     =  -18.48 kcal/mol
USER        Electrostatic Energy            =   -0.18 kcal/mol
USER    (2) Final Total Internal Energy     =   -7.43 kcal/mol
USER    (3) Torsional Free Energy           =   +8.05 kcal/mol
USER    (4) Unbound System's Energy  [=(2)] =   -7.43 kcal/mol
USER    
USER    
USER  
USER    DPF = dock.dpf
USER    NEWDPF move	lig2p3b.pdbqt
USER    NEWDPF about	17.085000 -0.070000 0.744000
USER    NEWDPF tran0	17.717107 -0.977167 0.198827
USER    NEWDPF axisangle0	-0.749098 -0.577630 0.324338 -131.615160
USER    NEWDPF quaternion0	-0.683308 -0.526899 0.295853 -0.409802
USER    NEWDPF dihe0	115.24 175.07 -178.71 147.92 84.39 -150.80 -16.38 -164.12 92.43 -26.87 -26.11 -117.44 -109.76 174.48 -177.13 -137.22 -57.70 27.59 82.89 -158.09 -150.03 -154.81 -166.48 -177.46 -121.82 -158.05 99.03 
USER  
USER                              x       y       z    vdW   Elec        q     RMS 
ATOM      1  C2 A3TL A 101      18.814   1.662   0.044 -0.27 -0.11    +0.171     2.873
ATOM      2  C1 A3TL A 101      18.629   0.798  -1.209 -0.32 -0.06    +0.120     2.873
ATOM      3  N1 A3TL A 101      18.422  -0.619  -0.879 -0.05 +0.15    -0.352     2.873
ATOM      4  C11A3TL A 101      17.244  -1.124  -0.485 -0.20 -0.03    +0.241     2.873
ATOM      5  O2 A3TL A 101      16.268  -0.420  -0.244 -0.39 -0.04    -0.271     2.873
ATOM      6  H1 A3TL A 101      19.217  -1.253  -0.953 +0.10 -0.11    +0.163     2.873
ATOM      7  C10A3TL A 101      17.164  -2.623  -0.334 -0.24 -0.01    +0.180     2.873
ATOM      8  N2 A3TL A 101      17.911  -3.313  -1.368 -0.07 +0.06    -0.346     2.873
ATOM      9  C19A3TL A 101      17.889  -2.928  -2.648 -0.16 -0.06    +0.240     2.873
ATOM     10  O4 A3TL A 101      17.077  -2.121  -3.079 -0.15 +0.07    -0.271     2.873
ATOM     11  H2 A3TL A 101      18.476  -4.122  -1.109 +0.09 -0.03    +0.163     2.873
ATOM     12  C18A3TL A 101      18.934  -3.560  -3.537 -0.23 -0.05    +0.174     2.873
ATOM     13  C20A3TL A 101      19.126  -2.714  -4.781 -0.31 -0.01    +0.042     2.873
ATOM     14  N4 A3TL A 101      18.661  -4.940  -3.899 -0.13 +0.05    -0.324     2.873
ATOM     15  C31A3TL A 101      17.690  -5.210  -4.779 -0.11 -0.05    +0.361     2.873
ATOM     16  O8 A3TL A 101      17.105  -4.349  -5.397 -0.19 +0.05    -0.238     2.873
ATOM     17  H4 A3TL A 101      19.206  -5.697  -3.487 +0.08 +0.00    +0.165     2.873
ATOM     18  O9 A3TL A 101      17.324  -6.585  -5.035 -0.12 -0.06    -0.299     2.873
ATOM     19  CA A3TL A 101      16.892  -7.494  -4.004 -0.11 +0.09    +0.219     2.873
ATOM     20  C  A3TL A 101      16.344  -6.837  -2.740 -0.18 -0.01    -0.034     2.873
ATOM     21  C13A3TL A 101      17.147  -6.786  -1.588 -0.25 +0.00    +0.009     2.873
ATOM     22  C14A3TL A 101      16.701  -6.184  -0.410 -0.32 +0.00    +0.001     2.873
ATOM     23  C15A3TL A 101      15.422  -5.640  -0.363 -0.36 +0.00    +0.000     2.873
ATOM     24  C16A3TL A 101      14.613  -5.680  -1.498 -0.32 +0.00    +0.001     2.873
ATOM     25  C17A3TL A 101      15.077  -6.277  -2.677 -0.27 +0.00    +0.009     2.873
ATOM     26  C12A3TL A 101      17.653  -3.121   1.040 -0.44 -0.00    +0.009     2.873
ATOM     27  CG1A3TL A 101      18.673  -4.249   0.921 -0.40 -0.00    +0.012     2.873
ATOM     28  CG2A3TL A 101      18.284  -2.011   1.862 -0.41 -0.00    +0.012     2.873
ATOM     29  C3 A3TL A 101      17.487   1.379  -2.056 -0.37 -0.01    +0.066     2.873
ATOM     30  C4 A3TL A 101      17.612   0.942  -3.495 -0.40 +0.01    -0.056     2.873
ATOM     31  C5 A3TL A 101      18.809   1.129  -4.192 -0.51 -0.00    +0.007     2.873
ATOM     32  C6 A3TL A 101      18.924   0.719  -5.525 -0.57 -0.00    +0.001     2.873
ATOM     33  C7 A3TL A 101      17.824   0.142  -6.166 -0.53 -0.00    +0.000     2.873
ATOM     34  C8 A3TL A 101      16.625  -0.028  -5.465 -0.48 -0.00    +0.001     2.873
ATOM     35  C9 A3TL A 101      16.515   0.360  -4.133 -0.46 -0.00    +0.007     2.873
ATOM     36  O1 A3TL A 101      19.015   2.997  -0.339 -0.19 +0.24    -0.391     2.873
ATOM     37  H1 A3TL A 101      19.832   3.065  -0.821 -0.11 -0.24    +0.210     2.873
ATOM     38  C52A3TL A 101      17.632   1.663   1.018 -0.23 -0.03    +0.171     2.873
ATOM     39  C51A3TL A 101      17.850   2.407   2.327 -0.23 -0.03    +0.120     2.873
ATOM     40  C53A3TL A 101      19.113   3.257   2.122 -0.25 -0.03    +0.066     2.873
ATOM     41  C54A3TL A 101      19.189   4.461   3.028 -0.19 +0.01    -0.056     2.873
ATOM     42  C55A3TL A 101      19.287   4.320   4.414 -0.22 -0.00    +0.007     2.873
ATOM     43  C56A3TL A 101      19.369   5.437   5.248 -0.33 -0.00    +0.001     2.873
ATOM     44  C57A3TL A 101      19.361   6.701   4.664 -0.25 +0.00    +0.000     2.873
ATOM     45  C58A3TL A 101      19.270   6.845   3.274 -0.33 +0.00    +0.001     2.873
ATOM     46  C59A3TL A 101      19.191   5.725   2.454 -0.30 -0.00    +0.007     2.873
ATOM     47  N51A3TL A 101      18.000   1.455   3.429 -0.08 +0.10    -0.352     2.873
ATOM     48  C61A3TL A 101      18.945   0.517   3.536 -0.23 -0.12    +0.241     2.873
ATOM     49  O52A3TL A 101      19.785   0.323   2.677 -0.29 +0.26    -0.271     2.873
ATOM     50  H51A3TL A 101      17.319   1.513   4.185 +0.05 -0.04    +0.163     2.873
ATOM     51  C60A3TL A 101      18.908  -0.318   4.795 -0.34 -0.06    +0.180     2.873
ATOM     52  N52A3TL A 101      18.959   0.534   5.977 -0.16 +0.05    -0.346     2.873
ATOM     53  C69A3TL A 101      17.975   1.324   6.408 -0.28 -0.04    +0.240     2.873
ATOM     54  O54A3TL A 101      16.891   1.400   5.844 -0.20 +0.07    -0.271     2.873
ATOM     55  H52A3TL A 101      19.822   0.525   6.521 +0.12 -0.01    +0.163     2.873
ATOM     56  C68A3TL A 101      18.298   2.156   7.638 -0.40 -0.03    +0.174     2.873
ATOM     57  C70A3TL A 101      17.964   1.378   8.903 -0.53 -0.02    +0.042     2.873
ATOM     58  N54A3TL A 101      17.564   3.401   7.621 -0.16 +0.09    -0.324     2.873
ATOM     59  C81A3TL A 101      16.261   3.556   7.854 -0.17 -0.01    +0.361     2.873
ATOM     60  O58A3TL A 101      15.600   2.912   8.649 -0.54 -0.05    -0.238     2.873
ATOM     61  H54A3TL A 101      18.095   4.246   7.409 +0.04 -0.09    +0.165     2.873
ATOM     62  O59A3TL A 101      15.597   4.580   7.093 -0.45 -0.02    -0.299     2.873
ATOM     63  CA5A3TL A 101      16.291   5.465   6.204 -0.16 +0.01    +0.219     2.873
ATOM     64  C50A3TL A 101      15.355   6.333   5.390 -0.20 -0.01    -0.034     2.873
ATOM     65  C63A3TL A 101      13.974   6.270   5.636 -0.30 +0.00    +0.009     2.873
ATOM     66  C64A3TL A 101      13.080   7.046   4.895 -0.30 +0.00    +0.001     2.873
ATOM     67  C65A3TL A 101      13.580   7.896   3.911 -0.20 +0.00    +0.000     2.873
ATOM     68  C66A3TL A 101      14.952   7.966   3.658 -0.17 +0.00    +0.001     2.873
ATOM     69  C67A3TL A 101      15.840   7.182   4.401 -0.17 +0.00    +0.009     2.873
ATOM     70  C62A3TL A 101      17.661  -1.203   4.855 -0.52 -0.00    +0.009     2.873
ATOM     71  CG5A3TL A 101      17.243  -1.531   6.291 -0.53 -0.00    +0.012     2.873
ATOM     72  CG6A3TL A 101      16.494  -0.557   4.123 -0.36 -0.00    +0.012     2.873
ATOM     73  O51A3TL A 101      16.569   2.321   0.366 -0.39 -0.05    -0.391     2.873
ATOM     74  H51A3TL A 101      16.913   2.644  -0.459 +0.13 -0.00    +0.210     2.873
TER
ENDMDL
MODEL        8
USER    Run = 8
USER    Cluster Rank = 2
USER    Number of conformations in this cluster = 1
USER  
USER    RMSD from reference structure       = 3.781 A
USER  
USER    Estimated Free Energy of Binding    =   -9.06 kcal/mol  [=(1)+(2)+(3)-(4)]
USER    Estimated Inhibition Constant, Ki   =  230.06 nM (nanomolar)  [Temperature = 298.15 K]
USER    
USER    (1) Final Intermolecular Energy     =  -17.11 kcal/mol
USER        vdW + Hbond + desolv Energy     =  -17.41 kcal/mol
USER        Electrostatic Energy            =   +0.30 kcal/mol
USER    (2) Final Total Internal Energy     =   -6.86 kcal/mol
USER    (3) Torsional Free Energy           =   +8.05 kcal/mol
USER    (4) Unbound System's Energy  [=(2)] =   -6.86 kcal/mol
USER    
USER    
USER  
USER    DPF = dock.dpf
USER    NEWDPF move	lig2p3b.pdbqt
USER    NEWDPF about	17.085000 -0.070000 0.744000
USER    NEWDPF tran0	15.808525 4.204120 2.911516
USER    NEWDPF axisangle0	-0.907128 0.105564 -0.407401 -104.788667
USER    NEWDPF quaternion0	-0.718653 0.083631 -0.322755 -0.610224
USER    NEWDPF dihe0	-111.45 142.28 -123.89 17.65 141.24 99.14 164.40 80.14 -51.54 -99.31 -81.23 -174.36 100.51 -167.25 -175.25 79.36 -178.21 -176.97 131.75 66.69 -7.55 178.80 57.12 61.47 159.13 153.12 89.12 
USER  
USER                              x       y       z    vdW   Elec        q     RMS 
ATOM      1  C2 A3TL A 101      18.007   2.506   3.600 -0.21 -0.04    +0.171     3.781
ATOM      2  C1 A3TL A 101      17.909   3.167   2.219 -0.24 -0.02    +0.120     3.781
ATOM      3  N1 A3TL A 101      17.297   2.276   1.222 -0.10 +0.03    -0.352     3.781
ATOM      4  C11A3TL A 101      17.764   1.053   0.935 -0.17 -0.06    +0.241     3.781
ATOM      5  O2 A3TL A 101      18.819   0.623   1.389 -0.14 +0.16    -0.271     3.781
ATOM      6  H1 A3TL A 101      16.471   2.607   0.722 +0.08 +0.02    +0.163     3.781
ATOM      7  C10A3TL A 101      16.930   0.210   0.002 -0.29 -0.00    +0.180     3.781
ATOM      8  N2 A3TL A 101      17.502   0.147  -1.330 -0.10 +0.07    -0.346     3.781
ATOM      9  C19A3TL A 101      18.700   0.663  -1.621 -0.27 -0.13    +0.240     3.781
ATOM     10  O4 A3TL A 101      19.299   1.410  -0.860 -0.26 +0.26    -0.271     3.781
ATOM     11  H2 A3TL A 101      16.969  -0.307  -2.072 +0.09 -0.02    +0.163     3.781
ATOM     12  C18A3TL A 101      19.273   0.265  -2.961 -0.29 -0.08    +0.174     3.781
ATOM     13  C20A3TL A 101      18.632   1.095  -4.057 -0.56 -0.01    +0.042     3.781
ATOM     14  N4 A3TL A 101      19.163  -1.151  -3.267 -0.13 +0.12    -0.324     3.781
ATOM     15  C31A3TL A 101      17.975  -1.659  -3.615 -0.14 -0.09    +0.361     3.781
ATOM     16  O8 A3TL A 101      17.000  -0.970  -3.820 -0.24 +0.05    -0.238     3.781
ATOM     17  H4 A3TL A 101      19.984  -1.753  -3.217 -0.36 -0.09    +0.165     3.781
ATOM     18  O9 A3TL A 101      17.834  -3.088  -3.784 -0.14 +0.07    -0.299     3.781
ATOM     19  CA A3TL A 101      17.998  -3.754  -5.051 -0.22 -0.06    +0.219     3.781
ATOM     20  C  A3TL A 101      16.793  -4.564  -5.526 -0.24 +0.01    -0.034     3.781
ATOM     21  C13A3TL A 101      16.146  -5.425  -4.625 -0.21 +0.00    +0.009     3.781
ATOM     22  C14A3TL A 101      15.032  -6.178  -5.003 -0.25 +0.00    +0.001     3.781
ATOM     23  C15A3TL A 101      14.560  -6.091  -6.309 -0.28 +0.00    +0.000     3.781
ATOM     24  C16A3TL A 101      15.189  -5.238  -7.214 -0.29 +0.00    +0.001     3.781
ATOM     25  C17A3TL A 101      16.299  -4.481  -6.819 -0.30 -0.00    +0.009     3.781
ATOM     26  C12A3TL A 101      16.717  -1.229   0.513 -0.39 +0.00    +0.009     3.781
ATOM     27  CG1A3TL A 101      17.967  -2.092   0.360 -0.33 -0.00    +0.012     3.781
ATOM     28  CG2A3TL A 101      16.307  -1.264   1.974 -0.34 +0.00    +0.012     3.781
ATOM     29  C3 A3TL A 101      17.163   4.502   2.353 -0.29 -0.00    +0.066     3.781
ATOM     30  C4 A3TL A 101      18.111   5.607   2.746 -0.22 -0.00    -0.056     3.781
ATOM     31  C5 A3TL A 101      17.623   6.807   3.275 -0.23 +0.00    +0.007     3.781
ATOM     32  C6 A3TL A 101      18.505   7.829   3.642 -0.28 +0.00    +0.001     3.781
ATOM     33  C7 A3TL A 101      19.879   7.655   3.455 -0.35 +0.00    +0.000     3.781
ATOM     34  C8 A3TL A 101      20.357   6.458   2.911 -0.31 +0.00    +0.001     3.781
ATOM     35  C9 A3TL A 101      19.484   5.431   2.565 -0.32 -0.00    +0.007     3.781
ATOM     36  O1 A3TL A 101      19.317   2.042   3.799 -0.05 +0.22    -0.391     3.781
ATOM     37  H1 A3TL A 101      19.903   2.785   3.884 -0.42 -0.19    +0.210     3.781
ATOM     38  C52A3TL A 101      17.684   3.417   4.786 -0.17 -0.04    +0.171     3.781
ATOM     39  C51A3TL A 101      17.417   2.717   6.110 -0.21 -0.03    +0.120     3.781
ATOM     40  C53A3TL A 101      16.708   1.401   5.753 +0.15 -0.02    +0.066     3.781
ATOM     41  C54A3TL A 101      17.616   0.196   5.777 -0.37 +0.01    -0.056     3.781
ATOM     42  C55A3TL A 101      17.900  -0.521   4.613 -0.41 -0.00    +0.007     3.781
ATOM     43  C56A3TL A 101      18.750  -1.628   4.638 -0.49 -0.00    +0.001     3.781
ATOM     44  C57A3TL A 101      19.319  -1.999   5.855 -0.38 -0.00    +0.000     3.781
ATOM     45  C58A3TL A 101      19.040  -1.277   7.023 -0.50 -0.00    +0.001     3.781
ATOM     46  C59A3TL A 101      18.194  -0.175   6.984 -0.51 -0.00    +0.007     3.781
ATOM     47  N51A3TL A 101      16.595   3.568   6.973 -0.08 +0.06    -0.352     3.781
ATOM     48  C61A3TL A 101      16.922   4.781   7.425 -0.18 -0.04    +0.241     3.781
ATOM     49  O52A3TL A 101      17.995   5.307   7.191 -0.06 +0.15    -0.271     3.781
ATOM     50  H51A3TL A 101      15.688   3.199   7.256 -0.34 -0.01    +0.163     3.781
ATOM     51  C60A3TL A 101      15.880   5.475   8.271 -0.19 +0.02    +0.180     3.781
ATOM     52  N52A3TL A 101      14.881   6.120   7.427 -0.12 -0.08    -0.346     3.781
ATOM     53  C69A3TL A 101      15.111   7.124   6.580 -0.11 +0.06    +0.240     3.781
ATOM     54  O54A3TL A 101      16.224   7.605   6.409 -0.09 -0.10    -0.271     3.781
ATOM     55  H52A3TL A 101      13.924   5.773   7.490 +0.05 +0.05    +0.163     3.781
ATOM     56  C68A3TL A 101      13.888   7.657   5.853 -0.16 +0.04    +0.174     3.781
ATOM     57  C70A3TL A 101      12.942   8.332   6.837 -0.07 +0.01    +0.042     3.781
ATOM     58  N54A3TL A 101      13.197   6.591   5.163 -0.19 -0.08    -0.324     3.781
ATOM     59  C81A3TL A 101      13.629   5.933   4.088 -0.17 +0.06    +0.361     3.781
ATOM     60  O58A3TL A 101      14.788   5.646   3.848 -0.26 -0.03    -0.238     3.781
ATOM     61  H54A3TL A 101      12.288   6.315   5.536 +0.07 +0.04    +0.165     3.781
ATOM     62  O59A3TL A 101      12.622   5.532   3.143 -0.32 -0.02    -0.299     3.781
ATOM     63  CA5A3TL A 101      11.283   6.043   3.166 -0.38 +0.02    +0.219     3.781
ATOM     64  C50A3TL A 101      10.940   6.847   1.930 -0.33 -0.00    -0.034     3.781
ATOM     65  C63A3TL A 101      10.749   8.233   2.045 -0.21 +0.00    +0.009     3.781
ATOM     66  C64A3TL A 101      10.418   9.005   0.929 -0.19 +0.00    +0.001     3.781
ATOM     67  C65A3TL A 101      10.290   8.380  -0.309 -0.30 +0.00    +0.000     3.781
ATOM     68  C66A3TL A 101      10.477   7.002  -0.435 -0.38 +0.00    +0.001     3.781
ATOM     69  C67A3TL A 101      10.804   6.235   0.688 -0.39 +0.00    +0.009     3.781
ATOM     70  C62A3TL A 101      15.189   4.506   9.233 -0.35 +0.00    +0.009     3.781
ATOM     71  CG5A3TL A 101      16.059   4.159  10.443 -0.37 +0.00    +0.012     3.781
ATOM     72  CG6A3TL A 101      13.857   5.065   9.710 -0.41 +0.00    +0.012     3.781
ATOM     73  O51A3TL A 101      18.818   4.229   4.995 -0.13 +0.10    -0.391     3.781
ATOM     74  H51A3TL A 101      19.578   3.683   4.834 -0.15 -0.09    +0.210     3.781
TER
ENDMDL
MODEL        7
USER    Run = 7
USER    Cluster Rank = 3
USER    Number of conformations in this cluster = 1
USER  
USER    RMSD from reference structure       = 2.569 A
USER  
USER    Estimated Free Energy of Binding    =   -8.64 kcal/mol  [=(1)+(2)+(3)-(4)]
USER    Estimated Inhibition Constant, Ki   =  464.00 nM (nanomolar)  [Temperature = 298.15 K]
USER    
USER    (1) Final Intermolecular Energy     =  -16.69 kcal/mol
USER        vdW + Hbond + desolv Energy     =  -16.43 kcal/mol
USER        Electrostatic Energy            =   -0.27 kcal/mol
USER    (2) Final Total Internal Energy     =   -7.15 kcal/mol
USER    (3) Torsional Free Energy           =   +8.05 kcal/mol
USER    (4) Unbound System's Energy  [=(2)] =   -7.15 kcal/mol
USER    
USER    
USER  
USER    DPF = dock.dpf
USER    NEWDPF move	lig2p3b.pdbqt
USER    NEWDPF about	17.085000 -0.070000 0.744000
USER    NEWDPF tran0	18.419123 -0.291608 2.518327
USER    NEWDPF axisangle0	-0.615773 -0.430823 0.659709 -104.907260
USER    NEWDPF quaternion0	-0.488222 -0.341582 0.523057 -0.609403
USER    NEWDPF dihe0	101.09 -127.85 158.73 -59.86 35.58 138.29 -49.06 53.53 22.49 -123.60 -35.23 -65.29 159.52 92.86 179.45 129.49 -157.59 -48.62 25.24 -58.15 73.21 -159.44 -35.17 171.91 -128.77 116.80 -179.42 
USER  
USER                              x       y       z    vdW   Elec        q     RMS 
ATOM      1  C2 A3TL A 101      19.100   2.405   1.844 -0.23 -0.09    +0.171     2.569
ATOM      2  C1 A3TL A 101      18.053   1.621   1.044 -0.24 -0.04    +0.120     2.569
ATOM      3  N1 A3TL A 101      18.233   0.168   1.172 -0.03 +0.14    -0.352     2.569
ATOM      4  C11A3TL A 101      17.929  -0.705   0.202 -0.16 -0.07    +0.241     2.569
ATOM      5  O2 A3TL A 101      17.354  -0.376  -0.831 -0.16 +0.04    -0.271     2.569
ATOM      6  H1 A3TL A 101      18.610  -0.196   2.048 +0.11 -0.09    +0.163     2.569
ATOM      7  C10A3TL A 101      18.319  -2.144   0.437 -0.24 -0.06    +0.180     2.569
ATOM      8  N2 A3TL A 101      18.051  -2.974  -0.722 -0.07 +0.08    -0.346     2.569
ATOM      9  C19A3TL A 101      16.965  -3.748  -0.813 -0.20 -0.00    +0.240     2.569
ATOM     10  O4 A3TL A 101      16.243  -3.987   0.144 -0.27 -0.04    -0.271     2.569
ATOM     11  H2 A3TL A 101      18.716  -2.967  -1.496 +0.05 -0.06    +0.163     2.569
ATOM     12  C18A3TL A 101      16.686  -4.319  -2.184 -0.18 -0.01    +0.174     2.569
ATOM     13  C20A3TL A 101      17.167  -5.756  -2.247 -0.24 +0.00    +0.042     2.569
ATOM     14  N4 A3TL A 101      17.242  -3.549  -3.282 -0.04 +0.08    -0.324     2.569
ATOM     15  C31A3TL A 101      18.568  -3.514  -3.456 -0.12 -0.09    +0.361     2.569
ATOM     16  O8 A3TL A 101      19.333  -4.204  -2.820 -0.18 +0.08    -0.238     2.569
ATOM     17  H4 A3TL A 101      16.627  -3.038  -3.916 -0.45 -0.08    +0.165     2.569
ATOM     18  O9 A3TL A 101      19.132  -2.639  -4.460 -0.56 +0.06    -0.299     2.569
ATOM     19  CA A3TL A 101      18.472  -2.336  -5.705 -0.33 -0.04    +0.219     2.569
ATOM     20  C  A3TL A 101      17.929  -3.542  -6.469 -0.31 +0.01    -0.034     2.569
ATOM     21  C13A3TL A 101      17.818  -3.476  -7.868 -0.34 -0.01    +0.009     2.569
ATOM     22  C14A3TL A 101      17.342  -4.555  -8.616 -0.26 -0.00    +0.001     2.569
ATOM     23  C15A3TL A 101      16.946  -5.718  -7.963 -0.16 -0.00    +0.000     2.569
ATOM     24  C16A3TL A 101      17.053  -5.800  -6.576 -0.18 -0.00    +0.001     2.569
ATOM     25  C17A3TL A 101      17.543  -4.715  -5.838 -0.23 -0.00    +0.009     2.569
ATOM     26  C12A3TL A 101      19.800  -2.314   0.830 -0.43 -0.01    +0.009     2.569
ATOM     27  CG1A3TL A 101      20.360  -3.672   0.417 -0.48 -0.01    +0.012     2.569
ATOM     28  CG2A3TL A 101      20.684  -1.243   0.217 -0.45 -0.02    +0.012     2.569
ATOM     29  C3 A3TL A 101      16.650   2.081   1.467 -0.27 +0.01    +0.066     2.569
ATOM     30  C4 A3TL A 101      16.460   3.550   1.184 -0.29 -0.01    -0.056     2.569
ATOM     31  C5 A3TL A 101      16.105   4.431   2.211 -0.23 +0.00    +0.007     2.569
ATOM     32  C6 A3TL A 101      15.934   5.794   1.947 -0.36 +0.00    +0.001     2.569
ATOM     33  C7 A3TL A 101      16.096   6.269   0.643 -0.10 +0.00    +0.000     2.569
ATOM     34  C8 A3TL A 101      16.437   5.379  -0.381 -0.57 +0.00    +0.001     2.569
ATOM     35  C9 A3TL A 101      16.628   4.026  -0.117 -0.46 +0.00    +0.007     2.569
ATOM     36  O1 A3TL A 101      18.981   3.772   1.548 -0.13 +0.14    -0.391     2.569
ATOM     37  H1 A3TL A 101      19.398   3.950   0.713 +0.14 -0.10    +0.210     2.569
ATOM     38  C52A3TL A 101      18.991   2.278   3.365 -0.04 -0.08    +0.171     2.569
ATOM     39  C51A3TL A 101      18.396   3.475   4.092 -0.21 -0.03    +0.120     2.569
ATOM     40  C53A3TL A 101      19.455   4.586   4.008 -0.15 -0.02    +0.066     2.569
ATOM     41  C54A3TL A 101      18.872   5.975   3.920 -0.24 -0.01    -0.056     2.569
ATOM     42  C55A3TL A 101      17.660   6.293   4.535 -0.19 +0.00    +0.007     2.569
ATOM     43  C56A3TL A 101      17.130   7.583   4.461 -0.19 +0.00    +0.001     2.569
ATOM     44  C57A3TL A 101      17.846   8.553   3.764 -0.27 +0.00    +0.000     2.569
ATOM     45  C58A3TL A 101      19.066   8.238   3.151 -0.25 +0.00    +0.001     2.569
ATOM     46  C59A3TL A 101      19.584   6.951   3.235 -0.35 +0.00    +0.007     2.569
ATOM     47  N51A3TL A 101      18.081   3.118   5.477 -0.10 +0.08    -0.352     2.569
ATOM     48  C61A3TL A 101      18.901   2.513   6.339 -0.27 -0.04    +0.241     2.569
ATOM     49  O52A3TL A 101      20.021   2.144   6.040 +0.08 -0.01    -0.271     2.569
ATOM     50  H51A3TL A 101      17.148   3.355   5.813 -0.10 -0.05    +0.163     2.569
ATOM     51  C60A3TL A 101      18.350   2.290   7.729 -0.39 -0.04    +0.180     2.569
ATOM     52  N52A3TL A 101      18.007   3.561   8.355 -0.16 +0.17    -0.346     2.569
ATOM     53  C69A3TL A 101      17.348   3.709   9.504 -0.24 -0.11    +0.240     2.569
ATOM     54  O54A3TL A 101      16.970   2.758  10.178 -0.11 +0.17    -0.271     2.569
ATOM     55  H52A3TL A 101      18.295   4.411   7.871 -0.10 -0.13    +0.163     2.569
ATOM     56  C68A3TL A 101      17.066   5.144   9.915 -0.17 -0.04    +0.174     2.569
ATOM     57  C70A3TL A 101      16.660   5.203  11.382 -0.22 +0.01    +0.042     2.569
ATOM     58  N54A3TL A 101      16.021   5.715   9.095 -0.06 -0.03    -0.324     2.569
ATOM     59  C81A3TL A 101      15.621   5.276   7.903 -0.13 +0.05    +0.361     2.569
ATOM     60  O58A3TL A 101      15.573   4.110   7.553 -0.70 -0.04    -0.238     2.569
ATOM     61  H54A3TL A 101      15.542   6.536   9.467 +0.06 +0.04    +0.165     2.569
ATOM     62  O59A3TL A 101      15.210   6.283   6.961 -0.13 -0.06    -0.299     2.569
ATOM     63  CA5A3TL A 101      13.877   6.805   6.910 -0.19 +0.06    +0.219     2.569
ATOM     64  C50A3TL A 101      13.340   6.909   5.498 -0.26 -0.01    -0.034     2.569
ATOM     65  C63A3TL A 101      12.617   8.052   5.121 -0.19 +0.00    +0.009     2.569
ATOM     66  C64A3TL A 101      12.096   8.175   3.831 -0.23 +0.00    +0.001     2.569
ATOM     67  C65A3TL A 101      12.313   7.149   2.915 -0.22 +0.00    +0.000     2.569
ATOM     68  C66A3TL A 101      13.030   6.007   3.279 -0.41 +0.00    +0.001     2.569
ATOM     69  C67A3TL A 101      13.545   5.889   4.574 -0.25 +0.00    +0.009     2.569
ATOM     70  C62A3TL A 101      17.121   1.377   7.716 -0.51 -0.00    +0.009     2.569
ATOM     71  CG5A3TL A 101      16.738   0.929   6.303 -0.44 -0.00    +0.012     2.569
ATOM     72  CG6A3TL A 101      17.337   0.154   8.594 -0.47 -0.00    +0.012     2.569
ATOM     73  O51A3TL A 101      18.125   1.196   3.621 -0.09 +0.12    -0.391     2.569
ATOM     74  H51A3TL A 101      18.457   0.457   3.125 +0.13 -0.08    +0.210     2.569
TER
ENDMDL
MODEL        3
USER    Run = 3
USER    Cluster Rank = 4
USER    Number of conformations in this cluster = 1
USER  
USER    RMSD from reference structure       = 2.312 A
USER  
USER    Estimated Free Energy of Binding    =   -6.26 kcal/mol  [=(1)+(2)+(3)-(4)]
USER    Estimated Inhibition Constant, Ki   =   25.84 uM (micromolar)  [Temperature = 298.15 K]
USER    
USER    (1) Final Intermolecular Energy     =  -14.31 kcal/mol
USER        vdW + Hbond + desolv Energy     =  -14.51 kcal/mol
USER        Electrostatic Energy            =   +0.19 kcal/mol
USER    (2) Final Total Internal Energy     =   -0.44 kcal/mol
USER    (3) Torsional Free Energy           =   +8.05 kcal/mol
USER    (4) Unbound System's Energy  [=(2)] =   -0.44 kcal/mol
USER    
USER    
USER  
USER    DPF = dock.dpf
USER    NEWDPF move	lig2p3b.pdbqt
USER    NEWDPF about	17.085000 -0.070000 0.744000
USER    NEWDPF tran0	19.597261 -1.407538 -0.167473
USER    NEWDPF axisangle0	0.214640 -0.920707 -0.325926 -147.388499
USER    NEWDPF quaternion0	0.206006 -0.883674 -0.312816 -0.280763
USER    NEWDPF dihe0	179.51 1.17 101.93 -114.00 106.94 -37.70 179.92 -159.30 34.33 3.03 30.73 173.84 163.32 -124.66 157.25 -176.58 -131.50 -112.39 -55.95 158.19 -139.64 -33.97 173.79 -179.89 136.25 108.66 -174.44 
USER  
USER                              x       y       z    vdW   Elec        q     RMS 
ATOM      1  C2 A3TL A 101      17.498  -2.750   1.241 -0.33 -0.02    +0.171     2.312
ATOM      2  C1 A3TL A 101      17.640  -1.224   1.282 -0.28 -0.02    +0.120     2.312
ATOM      3  N1 A3TL A 101      17.881  -0.727   2.644 -0.10 +0.10    -0.352     2.312
ATOM      4  C11A3TL A 101      18.943  -1.075   3.383 -0.32 -0.15    +0.241     2.312
ATOM      5  O2 A3TL A 101      19.740  -1.940   3.032 -0.15 +0.35    -0.271     2.312
ATOM      6  H1 A3TL A 101      17.203  -0.081   3.049 +0.10 -0.02    +0.163     2.312
ATOM      7  C10A3TL A 101      19.121  -0.357   4.698 -0.29 -0.07    +0.180     2.312
ATOM      8  N2 A3TL A 101      18.542   0.972   4.672 -0.12 +0.10    -0.346     2.312
ATOM      9  C19A3TL A 101      18.567   1.786   5.732 -0.26 -0.05    +0.240     2.312
ATOM     10  O4 A3TL A 101      18.871   1.401   6.852 -0.38 +0.02    -0.271     2.312
ATOM     11  H2 A3TL A 101      18.100   1.299   3.813 +0.10 -0.05    +0.163     2.312
ATOM     12  C18A3TL A 101      18.188   3.223   5.460 -0.23 -0.04    +0.174     2.312
ATOM     13  C20A3TL A 101      17.074   3.645   6.399 -0.21 -0.01    +0.042     2.312
ATOM     14  N4 A3TL A 101      17.822   3.499   4.081 -0.08 +0.06    -0.324     2.312
ATOM     15  C31A3TL A 101      16.969   2.683   3.451 -0.01 -0.06    +0.361     2.312
ATOM     16  O8 A3TL A 101      16.375   1.791   4.015 +0.13 +0.06    -0.238     2.312
ATOM     17  H4 A3TL A 101      18.213   4.307   3.597 +0.09 -0.02    +0.165     2.312
ATOM     18  O9 A3TL A 101      16.711   2.874   2.042 -0.19 -0.01    -0.299     2.312
ATOM     19  CA A3TL A 101      16.779   4.159   1.393 -0.28 +0.01    +0.219     2.312
ATOM     20  C  A3TL A 101      16.290   5.341   2.227 -0.31 -0.00    -0.034     2.312
ATOM     21  C13A3TL A 101      14.912   5.593   2.321 -0.32 +0.00    +0.009     2.312
ATOM     22  C14A3TL A 101      14.411   6.652   3.082 -0.15 +0.00    +0.001     2.312
ATOM     23  C15A3TL A 101      15.296   7.493   3.748 -0.20 +0.00    +0.000     2.312
ATOM     24  C16A3TL A 101      16.667   7.255   3.667 -0.21 +0.00    +0.001     2.312
ATOM     25  C17A3TL A 101      17.156   6.183   2.909 -0.24 +0.00    +0.009     2.312
ATOM     26  C12A3TL A 101      18.529  -1.128   5.894 -0.62 -0.00    +0.009     2.312
ATOM     27  CG1A3TL A 101      19.265  -0.832   7.198 -0.62 -0.00    +0.012     2.312
ATOM     28  CG2A3TL A 101      17.060  -0.813   6.110 -0.54 -0.00    +0.012     2.312
ATOM     29  C3 A3TL A 101      18.735  -0.794   0.295 -0.28 -0.04    +0.066     2.312
ATOM     30  C4 A3TL A 101      19.033   0.678   0.434 -0.26 +0.04    -0.056     2.312
ATOM     31  C5 A3TL A 101      19.501   1.196   1.645 -0.34 -0.01    +0.007     2.312
ATOM     32  C6 A3TL A 101      19.781   2.562   1.770 -0.08 -0.00    +0.001     2.312
ATOM     33  C7 A3TL A 101      19.566   3.412   0.682 -0.44 -0.00    +0.000     2.312
ATOM     34  C8 A3TL A 101      19.084   2.887  -0.522 -0.24 -0.00    +0.001     2.312
ATOM     35  C9 A3TL A 101      18.825   1.527  -0.655 -0.36 -0.00    +0.007     2.312
ATOM     36  O1 A3TL A 101      16.219  -3.110   1.693 -0.19 -0.06    -0.391     2.312
ATOM     37  H1 A3TL A 101      15.738  -2.325   1.928 +0.12 +0.08    +0.210     2.312
ATOM     38  C52A3TL A 101      17.665  -3.386  -0.142 -0.26 -0.02    +0.171     2.312
ATOM     39  C51A3TL A 101      16.377  -3.729  -0.876 -0.06 +0.01    +0.120     2.312
ATOM     40  C53A3TL A 101      15.877  -5.043  -0.256 -0.41 +0.01    +0.066     2.312
ATOM     41  C54A3TL A 101      15.158  -5.941  -1.232 -0.30 -0.01    -0.056     2.312
ATOM     42  C55A3TL A 101      13.763  -5.985  -1.283 -0.22 +0.00    +0.007     2.312
ATOM     43  C56A3TL A 101      13.101  -6.808  -2.197 -0.35 +0.00    +0.001     2.312
ATOM     44  C57A3TL A 101      13.867  -7.581  -3.067 -0.24 +0.00    +0.000     2.312
ATOM     45  C58A3TL A 101      15.266  -7.532  -3.022 -0.18 +0.00    +0.001     2.312
ATOM     46  C59A3TL A 101      15.913  -6.707  -2.110 -0.25 +0.00    +0.007     2.312
ATOM     47  N51A3TL A 101      16.636  -3.861  -2.311 -0.05 +0.04    -0.352     2.312
ATOM     48  C61A3TL A 101      17.501  -4.702  -2.881 -0.13 -0.02    +0.241     2.312
ATOM     49  O52A3TL A 101      18.222  -5.444  -2.240 -0.11 -0.01    -0.271     2.312
ATOM     50  H51A3TL A 101      16.104  -3.252  -2.933 -0.40 -0.09    +0.163     2.312
ATOM     51  C60A3TL A 101      17.554  -4.674  -4.391 -0.19 -0.03    +0.180     2.312
ATOM     52  N52A3TL A 101      18.046  -3.385  -4.863 -0.12 +0.09    -0.346     2.312
ATOM     53  C69A3TL A 101      18.863  -2.572  -4.192 -0.25 -0.06    +0.240     2.312
ATOM     54  O54A3TL A 101      19.309  -2.847  -3.085 -0.13 +0.12    -0.271     2.312
ATOM     55  H52A3TL A 101      17.738  -3.078  -5.786 +0.09 -0.04    +0.163     2.312
ATOM     56  C68A3TL A 101      19.186  -1.257  -4.881 -0.21 -0.02    +0.174     2.312
ATOM     57  C70A3TL A 101      18.999  -0.095  -3.915 -0.33 -0.01    +0.042     2.312
ATOM     58  N54A3TL A 101      18.344  -1.068  -6.042 -0.24 +0.04    -0.324     2.312
ATOM     59  C81A3TL A 101      17.078  -1.461  -6.175 -0.24 -0.05    +0.361     2.312
ATOM     60  O58A3TL A 101      16.243  -1.480  -5.288 -0.17 +0.06    -0.238     2.312
ATOM     61  H54A3TL A 101      18.762  -0.586  -6.838 +0.11 -0.02    +0.165     2.312
ATOM     62  O59A3TL A 101      16.682  -1.892  -7.488 -0.16 +0.05    -0.299     2.312
ATOM     63  CA5A3TL A 101      17.352  -2.941  -8.199 -0.18 -0.14    +0.219     2.312
ATOM     64  C50A3TL A 101      16.576  -4.241  -8.196 -0.30 +0.01    -0.034     2.312
ATOM     65  C63A3TL A 101      15.258  -4.252  -7.712 -0.23 +0.00    +0.009     2.312
ATOM     66  C64A3TL A 101      14.517  -5.435  -7.682 -0.31 +0.00    +0.001     2.312
ATOM     67  C65A3TL A 101      15.100  -6.609  -8.152 -0.13 +0.00    +0.000     2.312
ATOM     68  C66A3TL A 101      16.411  -6.610  -8.635 -0.11 +0.00    +0.001     2.312
ATOM     69  C67A3TL A 101      17.149  -5.423  -8.658 -0.18 -0.00    +0.009     2.312
ATOM     70  C62A3TL A 101      18.434  -5.794  -4.952 -0.17 -0.00    +0.009     2.312
ATOM     71  CG5A3TL A 101      19.847  -5.779  -4.367 -0.11 -0.00    +0.012     2.312
ATOM     72  CG6A3TL A 101      17.802  -7.157  -4.716 +0.08 +0.01    +0.012     2.312
ATOM     73  O51A3TL A 101      18.333  -2.440  -0.946 -0.08 +0.12    -0.391     2.312
ATOM     74  H51A3TL A 101      18.420  -2.828  -1.809 +0.10 -0.06    +0.210     2.312
TER
ENDMDL
MODEL        6
USER    Run = 6
USER    Cluster Rank = 5
USER    Number of conformations in this cluster = 1
USER  
USER    RMSD from reference structure       = 4.338 A
USER  
USER    Estimated Free Energy of Binding    =   -5.29 kcal/mol  [=(1)+(2)+(3)-(4)]
USER    Estimated Inhibition Constant, Ki   =  133.17 uM (micromolar)  [Temperature = 298.15 K]
USER    
USER    (1) Final Intermolecular Energy     =  -13.34 kcal/mol
USER        vdW + Hbond + desolv Energy     =  -13.00 kcal/mol
USER        Electrostatic Energy            =   -0.35 kcal/mol
USER    (2) Final Total Internal Energy     =   +1.65 kcal/mol
USER    (3) Torsional Free Energy           =   +8.05 kcal/mol
USER    (4) Unbound System's Energy  [=(2)] =   +1.65 kcal/mol
USER    
USER    
USER  
USER    DPF = dock.dpf
USER    NEWDPF move	lig2p3b.pdbqt
USER    NEWDPF about	17.085000 -0.070000 0.744000
USER    NEWDPF tran0	15.938410 6.259357 5.708865
USER    NEWDPF axisangle0	0.197593 -0.978741 0.054979 -63.557808
USER    NEWDPF quaternion0	0.104061 -0.515447 0.028954 -0.850087
USER    NEWDPF dihe0	11.87 144.57 -179.92 -125.84 115.03 -179.80 -124.77 35.11 177.17 162.29 -41.59 177.75 179.10 -91.04 -153.56 -42.74 14.64 84.82 -6.88 -4.34 -64.67 -26.44 53.15 31.18 -115.74 125.17 38.44 
USER  
USER                              x       y       z    vdW   Elec        q     RMS 
ATOM      1  C2 A3TL A 101      17.365   6.496   8.179 +0.07 -0.02    +0.171     4.338
ATOM      2  C1 A3TL A 101      16.284   7.508   7.780 -0.11 +0.04    +0.120     4.338
ATOM      3  N1 A3TL A 101      15.855   7.337   6.384 -0.03 -0.11    -0.352     4.338
ATOM      4  C11A3TL A 101      16.682   7.447   5.336 -0.10 +0.09    +0.241     4.338
ATOM      5  O2 A3TL A 101      17.844   7.827   5.445 -0.12 -0.19    -0.271     4.338
ATOM      6  H1 A3TL A 101      14.874   7.122   6.203 +0.06 +0.04    +0.163     4.338
ATOM      7  C10A3TL A 101      16.117   7.090   3.983 -0.16 +0.04    +0.180     4.338
ATOM      8  N2 A3TL A 101      14.823   7.705   3.757 -0.07 -0.08    -0.346     4.338
ATOM      9  C19A3TL A 101      13.772   7.016   3.302 -0.09 +0.05    +0.240     4.338
ATOM     10  O4 A3TL A 101      13.873   5.890   2.836 -0.30 -0.04    -0.271     4.338
ATOM     11  H2 A3TL A 101      14.711   8.700   3.952 +0.05 +0.04    +0.163     4.338
ATOM     12  C18A3TL A 101      12.440   7.723   3.396 -0.18 +0.03    +0.174     4.338
ATOM     13  C20A3TL A 101      11.814   7.455   4.752 +0.25 +0.01    +0.042     4.338
ATOM     14  N4 A3TL A 101      11.507   7.394   2.333 -0.11 -0.05    -0.324     4.338
ATOM     15  C31A3TL A 101      10.579   6.452   2.538 -0.24 +0.04    +0.361     4.338
ATOM     16  O8 A3TL A 101      10.387   5.945   3.621 -0.20 -0.03    -0.238     4.338
ATOM     17  H4 A3TL A 101      11.558   7.877   1.436 +0.08 +0.03    +0.165     4.338
ATOM     18  O9 A3TL A 101       9.741   6.026   1.440 -0.24 -0.03    -0.299     4.338
ATOM     19  CA A3TL A 101       9.637   6.750   0.198 -0.24 +0.02    +0.219     4.338
ATOM     20  C  A3TL A 101      10.341   6.108  -0.995 -0.47 -0.00    -0.034     4.338
ATOM     21  C13A3TL A 101      11.744   6.132  -1.060 +0.19 +0.00    +0.009     4.338
ATOM     22  C14A3TL A 101      12.438   5.548  -2.121 -0.28 +0.00    +0.001     4.338
ATOM     23  C15A3TL A 101      11.727   4.945  -3.153 -0.20 +0.00    +0.000     4.338
ATOM     24  C16A3TL A 101      10.335   4.910  -3.102 +0.52 +0.00    +0.001     4.338
ATOM     25  C17A3TL A 101       9.650   5.491  -2.027 -0.40 +0.00    +0.009     4.338
ATOM     26  C12A3TL A 101      17.051   7.468   2.817 -0.30 +0.00    +0.009     4.338
ATOM     27  CG1A3TL A 101      16.326   8.238   1.717 +0.81 +0.00    +0.012     4.338
ATOM     28  CG2A3TL A 101      18.227   8.313   3.274 -0.31 +0.01    +0.012     4.338
ATOM     29  C3 A3TL A 101      15.115   7.412   8.772 -0.10 +0.02    +0.066     4.338
ATOM     30  C4 A3TL A 101      15.229   6.168   9.615 -0.14 -0.01    -0.056     4.338
ATOM     31  C5 A3TL A 101      14.800   4.932   9.120 -0.28 +0.00    +0.007     4.338
ATOM     32  C6 A3TL A 101      14.911   3.778   9.903 +0.10 +0.00    +0.001     4.338
ATOM     33  C7 A3TL A 101      15.433   3.870  11.196 -0.29 +0.00    +0.000     4.338
ATOM     34  C8 A3TL A 101      15.847   5.112  11.689 -0.22 +0.00    +0.001     4.338
ATOM     35  C9 A3TL A 101      15.757   6.258  10.905 -0.10 +0.00    +0.007     4.338
ATOM     36  O1 A3TL A 101      17.636   6.625   9.550 -0.03 +0.10    -0.391     4.338
ATOM     37  H1 A3TL A 101      18.424   6.136   9.761 -0.51 -0.23    +0.210     4.338
ATOM     38  C52A3TL A 101      17.004   5.027   7.943 -0.19 -0.04    +0.171     4.338
ATOM     39  C51A3TL A 101      17.827   4.301   6.889 -0.25 -0.04    +0.120     4.338
ATOM     40  C53A3TL A 101      17.548   5.029   5.565 -0.23 -0.01    +0.066     4.338
ATOM     41  C54A3TL A 101      18.767   5.185   4.689 -0.24 +0.01    -0.056     4.338
ATOM     42  C55A3TL A 101      19.995   5.584   5.220 -0.36 -0.00    +0.007     4.338
ATOM     43  C56A3TL A 101      21.123   5.715   4.408 -0.44 -0.00    +0.001     4.338
ATOM     44  C57A3TL A 101      20.998   5.430   3.051 +0.59 -0.00    +0.000     4.338
ATOM     45  C58A3TL A 101      19.768   5.024   2.516 -0.30 -0.00    +0.001     4.338
ATOM     46  C59A3TL A 101      18.654   4.895   3.336 -0.23 -0.00    +0.007     4.338
ATOM     47  N51A3TL A 101      17.441   2.890   6.833 -0.12 +0.08    -0.352     4.338
ATOM     48  C61A3TL A 101      17.993   1.894   7.530 -0.35 -0.04    +0.241     4.338
ATOM     49  O52A3TL A 101      18.937   2.056   8.281 -0.65 +0.06    -0.271     4.338
ATOM     50  H51A3TL A 101      16.678   2.645   6.201 -0.42 -0.06    +0.163     4.338
ATOM     51  C60A3TL A 101      17.385   0.526   7.322 -0.40 -0.02    +0.180     4.338
ATOM     52  N52A3TL A 101      17.745  -0.002   6.012 -0.15 +0.04    -0.346     4.338
ATOM     53  C69A3TL A 101      16.912  -0.597   5.158 -0.32 -0.02    +0.240     4.338
ATOM     54  O54A3TL A 101      15.719  -0.747   5.392 -0.23 -0.01    -0.271     4.338
ATOM     55  H52A3TL A 101      18.719   0.092   5.723 +0.13 -0.03    +0.163     4.338
ATOM     56  C68A3TL A 101      17.547  -1.109   3.877 -0.32 -0.03    +0.174     4.338
ATOM     57  C70A3TL A 101      18.722  -0.225   3.479 -0.39 -0.02    +0.042     4.338
ATOM     58  N54A3TL A 101      16.578  -1.145   2.804 -0.15 -0.01    -0.324     4.338
ATOM     59  C81A3TL A 101      16.836  -1.325   1.509 -0.19 +0.01    +0.361     4.338
ATOM     60  O58A3TL A 101      17.710  -2.039   1.051 -0.22 +0.05    -0.238     4.338
ATOM     61  H54A3TL A 101      15.599  -1.020   3.064 +0.13 +0.03    +0.165     4.338
ATOM     62  O59A3TL A 101      15.995  -0.607   0.589 -0.82 -0.08    -0.299     4.338
ATOM     63  CA5A3TL A 101      16.303   0.710   0.116 -0.29 +0.04    +0.219     4.338
ATOM     64  C50A3TL A 101      16.743   0.727  -1.332 -0.35 +0.00    -0.034     4.338
ATOM     65  C63A3TL A 101      17.536   1.789  -1.796 -0.30 -0.00    +0.009     4.338
ATOM     66  C64A3TL A 101      17.948   1.844  -3.129 -0.27 -0.00    +0.001     4.338
ATOM     67  C65A3TL A 101      17.571   0.821  -3.995 -0.46 -0.00    +0.000     4.338
ATOM     68  C66A3TL A 101      16.782  -0.240  -3.545 -0.40 -0.00    +0.001     4.338
ATOM     69  C67A3TL A 101      16.368  -0.286  -2.210 -0.39 -0.00    +0.009     4.338
ATOM     70  C62A3TL A 101      17.819  -0.461   8.409 -0.49 -0.00    +0.009     4.338
ATOM     71  CG5A3TL A 101      19.313  -0.785   8.345 -0.09 -0.00    +0.012     4.338
ATOM     72  CG6A3TL A 101      17.473   0.062   9.795 +0.18 -0.00    +0.012     4.338
ATOM     73  O51A3TL A 101      17.242   4.351   9.157 -0.13 +0.14    -0.391     4.338
ATOM     74  H51A3TL A 101      18.004   4.758   9.553 -0.19 -0.17    +0.210     4.338
TER
ENDMDL
MODEL        2
USER    Run = 2
USER    Cluster Rank = 6
USER    Number of conformations in this cluster = 1
USER  
USER    RMSD from reference structure       = 3.277 A
USER  
USER    Estimated Free Energy of Binding    =   -3.00 kcal/mol  [=(1)+(2)+(3)-(4)]
USER    Estimated Inhibition Constant, Ki   =    6.28 mM (millimolar)  [Temperature = 298.15 K]
USER    
USER    (1) Final Intermolecular Energy     =  -11.06 kcal/mol
USER        vdW + Hbond + desolv Energy     =  -10.86 kcal/mol
USER        Electrostatic Energy            =   -0.20 kcal/mol
USER    (2) Final Total Internal Energy     =   -0.60 kcal/mol
USER    (3) Torsional Free Energy           =   +8.05 kcal/mol
USER    (4) Unbound System's Energy  [=(2)] =   -0.60 kcal/mol
USER    
USER    
USER  
USER    DPF = dock.dpf
USER    NEWDPF move	lig2p3b.pdbqt
USER    NEWDPF about	17.085000 -0.070000 0.744000
USER    NEWDPF tran0	17.938935 2.211602 -2.537926
USER    NEWDPF axisangle0	0.499981 -0.110980 0.858896 172.803738
USER    NEWDPF quaternion0	0.498996 -0.110761 0.857203 0.062758
USER    NEWDPF dihe0	73.13 84.19 139.94 8.98 5.53 -140.60 84.21 -180.00 -99.96 -65.61 -85.90 155.00 -98.86 -100.43 -179.91 -168.89 62.84 170.72 168.41 -134.48 99.88 100.94 175.97 -120.86 53.82 -174.92 -149.94 
USER  
USER                              x       y       z    vdW   Elec        q     RMS 
ATOM      1  C2 A3TL A 101      16.377   1.259  -0.337 -0.26 +0.03    +0.171     3.277
ATOM      2  C1 A3TL A 101      17.307   0.325  -1.121 -0.31 -0.02    +0.120     3.277
ATOM      3  N1 A3TL A 101      17.658  -0.879  -0.354 -0.06 +0.07    -0.352     3.277
ATOM      4  C11A3TL A 101      16.760  -1.790   0.048 -0.22 +0.01    +0.241     3.277
ATOM      5  O2 A3TL A 101      15.551  -1.631  -0.082 +0.82 -0.14    -0.271     3.277
ATOM      6  H1 A3TL A 101      18.638  -1.029  -0.113 +0.11 -0.08    +0.163     3.277
ATOM      7  C10A3TL A 101      17.304  -3.042   0.691 -0.31 -0.01    +0.180     3.277
ATOM      8  N2 A3TL A 101      16.467  -4.195   0.424 -0.20 -0.03    -0.346     3.277
ATOM      9  C19A3TL A 101      15.956  -4.448  -0.784 -0.07 +0.03    +0.240     3.277
ATOM     10  O4 A3TL A 101      15.966  -3.625  -1.689 +0.24 -0.01    -0.271     3.277
ATOM     11  H2 A3TL A 101      16.260  -4.839   1.189 +0.10 +0.02    +0.163     3.277
ATOM     12  C18A3TL A 101      15.356  -5.822  -0.965 -0.29 +0.03    +0.174     3.277
ATOM     13  C20A3TL A 101      16.217  -6.852  -0.258 -0.08 +0.01    +0.042     3.277
ATOM     14  N4 A3TL A 101      15.136  -6.207  -2.348 -0.14 -0.05    -0.324     3.277
ATOM     15  C31A3TL A 101      16.187  -6.464  -3.135 -0.08 +0.06    +0.361     3.277
ATOM     16  O8 A3TL A 101      17.322  -6.523  -2.717 -0.11 -0.05    -0.238     3.277
ATOM     17  H4 A3TL A 101      14.188  -6.281  -2.717 +0.08 +0.03    +0.165     3.277
ATOM     18  O9 A3TL A 101      15.978  -6.711  -4.544 -0.08 -0.06    -0.299     3.277
ATOM     19  CA A3TL A 101      15.531  -5.698  -5.466 -0.18 +0.03    +0.219     3.277
ATOM     20  C  A3TL A 101      15.155  -6.200  -6.858 -0.20 -0.01    -0.034     3.277
ATOM     21  C13A3TL A 101      14.665  -5.290  -7.809 -0.30 +0.00    +0.009     3.277
ATOM     22  C14A3TL A 101      14.320  -5.693  -9.100 -0.27 +0.00    +0.001     3.277
ATOM     23  C15A3TL A 101      14.443  -7.033  -9.453 -0.10 +0.00    +0.000     3.277
ATOM     24  C16A3TL A 101      14.931  -7.949  -8.522 -0.06 +0.00    +0.001     3.277
ATOM     25  C17A3TL A 101      15.284  -7.530  -7.234 -0.10 +0.00    +0.009     3.277
ATOM     26  C12A3TL A 101      18.746  -3.370   0.254 -0.40 -0.00    +0.009     3.277
ATOM     27  CG1A3TL A 101      19.200  -4.745   0.733 -0.34 -0.00    +0.012     3.277
ATOM     28  CG2A3TL A 101      18.913  -3.327  -1.255 -0.26 -0.00    +0.012     3.277
ATOM     29  C3 A3TL A 101      16.661  -0.007  -2.475 -0.40 -0.00    +0.066     3.277
ATOM     30  C4 A3TL A 101      17.529   0.470  -3.613 -0.38 +0.01    -0.056     3.277
ATOM     31  C5 A3TL A 101      18.151   1.721  -3.555 -0.46 -0.00    +0.007     3.277
ATOM     32  C6 A3TL A 101      18.959   2.160  -4.611 -0.48 -0.00    +0.001     3.277
ATOM     33  C7 A3TL A 101      19.122   1.348  -5.736 -0.46 -0.00    +0.000     3.277
ATOM     34  C8 A3TL A 101      18.484   0.104  -5.792 -0.55 -0.00    +0.001     3.277
ATOM     35  C9 A3TL A 101      17.697  -0.343  -4.735 -0.41 -0.00    +0.007     3.277
ATOM     36  O1 A3TL A 101      16.024   0.648   0.877 -0.75 -0.10    -0.391     3.277
ATOM     37  H1 A3TL A 101      15.119   0.360   0.830 +0.09 +0.11    +0.210     3.277
ATOM     38  C52A3TL A 101      16.970   2.624   0.019 -0.33 -0.00    +0.171     3.277
ATOM     39  C51A3TL A 101      17.997   2.631   1.142 -0.28 -0.03    +0.120     3.277
ATOM     40  C53A3TL A 101      18.079   1.181   1.644 -0.26 -0.02    +0.066     3.277
ATOM     41  C54A3TL A 101      19.210   0.389   1.033 -0.28 +0.04    -0.056     3.277
ATOM     42  C55A3TL A 101      19.629  -0.822   1.588 -0.34 -0.01    +0.007     3.277
ATOM     43  C56A3TL A 101      20.667  -1.557   1.013 +1.62 -0.00    +0.001     3.277
ATOM     44  C57A3TL A 101      21.273  -1.058  -0.138 +0.21 -0.00    +0.000     3.277
ATOM     45  C58A3TL A 101      20.850   0.154  -0.700 +0.57 -0.00    +0.001     3.277
ATOM     46  C59A3TL A 101      19.813   0.874  -0.119 -0.31 -0.01    +0.007     3.277
ATOM     47  N51A3TL A 101      17.583   3.556   2.198 -0.07 +0.04    -0.352     3.277
ATOM     48  C61A3TL A 101      17.287   3.231   3.458 -0.15 -0.04    +0.241     3.277
ATOM     49  O52A3TL A 101      17.290   2.084   3.864 -0.17 +0.06    -0.271     3.277
ATOM     50  H51A3TL A 101      17.515   4.542   1.946 +0.10 -0.01    +0.163     3.277
ATOM     51  C60A3TL A 101      16.924   4.381   4.370 -0.11 -0.02    +0.180     3.277
ATOM     52  N52A3TL A 101      17.084   3.997   5.767 -0.05 +0.08    -0.346     3.277
ATOM     53  C69A3TL A 101      18.167   4.217   6.514 -0.20 -0.08    +0.240     3.277
ATOM     54  O54A3TL A 101      19.157   4.799   6.090 -0.29 +0.13    -0.271     3.277
ATOM     55  H52A3TL A 101      16.301   3.519   6.212 -0.47 -0.06    +0.163     3.277
ATOM     56  C68A3TL A 101      18.104   3.670   7.930 -0.23 -0.08    +0.174     3.277
ATOM     57  C70A3TL A 101      17.780   2.182   7.907 -0.48 -0.01    +0.042     3.277
ATOM     58  N54A3TL A 101      17.110   4.375   8.708 -0.12 +0.10    -0.324     3.277
ATOM     59  C81A3TL A 101      15.898   4.742   8.297 -0.15 +0.03    +0.361     3.277
ATOM     60  O58A3TL A 101      15.186   4.116   7.532 -0.55 -0.08    -0.238     3.277
ATOM     61  H54A3TL A 101      17.363   4.615   9.667 +0.04 -0.07    +0.165     3.277
ATOM     62  O59A3TL A 101      15.402   5.988   8.817 -0.11 -0.06    -0.299     3.277
ATOM     63  CA5A3TL A 101      15.787   7.263   8.287 -0.07 +0.06    +0.219     3.277
ATOM     64  C50A3TL A 101      14.950   7.680   7.096 -0.11 -0.01    -0.034     3.277
ATOM     65  C63A3TL A 101      14.098   6.741   6.493 -0.26 +0.00    +0.009     3.277
ATOM     66  C64A3TL A 101      13.322   7.087   5.385 -0.27 +0.00    +0.001     3.277
ATOM     67  C65A3TL A 101      13.397   8.387   4.888 -0.19 +0.00    +0.000     3.277
ATOM     68  C66A3TL A 101      14.242   9.329   5.480 -0.10 +0.00    +0.001     3.277
ATOM     69  C67A3TL A 101      15.019   8.974   6.586 -0.07 +0.00    +0.009     3.277
ATOM     70  C62A3TL A 101      17.767   5.626   4.081 -0.23 +0.00    +0.009     3.277
ATOM     71  CG5A3TL A 101      17.447   6.248   2.720 -0.29 +0.00    +0.012     3.277
ATOM     72  CG6A3TL A 101      17.589   6.672   5.171 -0.22 +0.00    +0.012     3.277
ATOM     73  O51A3TL A 101      17.643   3.087  -1.130 +0.08 +0.06    -0.391     3.277
ATOM     74  H51A3TL A 101      18.557   2.850  -1.025 +0.14 -0.09    +0.210     3.277
TER
ENDMDL
MODEL        4
USER    Run = 4
USER    Cluster Rank = 7
USER    Number of conformations in this cluster = 1
USER  
USER    RMSD from reference structure       = 3.439 A
USER  
USER    Estimated Free Energy of Binding    =   -1.76 kcal/mol  [=(1)+(2)+(3)-(4)]
USER    Estimated Inhibition Constant, Ki   =   51.01 mM (millimolar)  [Temperature = 298.15 K]
USER    
USER    (1) Final Intermolecular Energy     =   -9.82 kcal/mol
USER        vdW + Hbond + desolv Energy     =   -9.72 kcal/mol
USER        Electrostatic Energy            =   -0.10 kcal/mol
USER    (2) Final Total Internal Energy     =   -5.89 kcal/mol
USER    (3) Torsional Free Energy           =   +8.05 kcal/mol
USER    (4) Unbound System's Energy  [=(2)] =   -5.89 kcal/mol
USER    
USER    
USER  
USER    DPF = dock.dpf
USER    NEWDPF move	lig2p3b.pdbqt
USER    NEWDPF about	17.085000 -0.070000 0.744000
USER    NEWDPF tran0	18.643805 -2.731617 -2.422735
USER    NEWDPF axisangle0	-0.072834 -0.165236 -0.983561 138.648550
USER    NEWDPF quaternion0	-0.068143 -0.154594 -0.920214 0.353078
USER    NEWDPF dihe0	-145.16 -66.41 84.11 -100.52 -18.87 180.00 179.54 40.39 14.11 36.67 -174.10 150.42 -65.95 79.25 -178.96 -132.14 -44.57 -139.33 -38.87 62.16 142.74 96.75 -24.44 -79.31 -152.04 60.87 175.27 
USER  
USER                              x       y       z    vdW   Elec        q     RMS 
ATOM      1  C2 A3TL A 101      16.267  -1.136  -2.429 +0.02 -0.02    +0.171     3.439
ATOM      2  C1 A3TL A 101      16.385  -2.393  -1.557 +0.65 -0.00    +0.120     3.439
ATOM      3  N1 A3TL A 101      16.932  -3.535  -2.303 -0.06 +0.05    -0.352     3.439
ATOM      4  C11A3TL A 101      16.455  -4.783  -2.202 -0.16 +0.00    +0.241     3.439
ATOM      5  O2 A3TL A 101      15.603  -5.103  -1.380 -0.25 -0.03    -0.271     3.439
ATOM      6  H1 A3TL A 101      17.717  -3.368  -2.933 +0.06 -0.03    +0.163     3.439
ATOM      7  C10A3TL A 101      17.027  -5.808  -3.151 -0.15 +0.02    +0.180     3.439
ATOM      8  N2 A3TL A 101      16.097  -6.142  -4.212 -0.06 -0.05    -0.346     3.439
ATOM      9  C19A3TL A 101      16.239  -7.231  -4.974 -0.10 +0.07    +0.240     3.439
ATOM     10  O4 A3TL A 101      17.265  -7.897  -4.987 -0.21 -0.18    -0.271     3.439
ATOM     11  H2 A3TL A 101      15.304  -5.523  -4.384 +0.04 +0.01    +0.163     3.439
ATOM     12  C18A3TL A 101      15.046  -7.589  -5.829 -0.10 +0.05    +0.174     3.439
ATOM     13  C20A3TL A 101      14.953  -9.096  -5.972 -0.07 +0.01    +0.042     3.439
ATOM     14  N4 A3TL A 101      15.027  -6.953  -7.134 -0.04 -0.08    -0.324     3.439
ATOM     15  C31A3TL A 101      15.904  -7.340  -8.067 -0.01 +0.08    +0.361     3.439
ATOM     16  O8 A3TL A 101      16.635  -8.294  -7.926 -0.16 -0.09    -0.238     3.439
ATOM     17  H4 A3TL A 101      14.351  -6.217  -7.338 +0.06 +0.04    +0.165     3.439
ATOM     18  O9 A3TL A 101      15.980  -6.616  -9.317 -0.03 -0.06    -0.299     3.439
ATOM     19  CA A3TL A 101      17.001  -5.641  -9.605 -0.12 -0.01    +0.219     3.439
ATOM     20  C  A3TL A 101      17.104  -4.487  -8.610 -0.26 +0.01    -0.034     3.439
ATOM     21  C13A3TL A 101      18.334  -3.828  -8.446 +0.13 -0.01    +0.009     3.439
ATOM     22  C14A3TL A 101      18.479  -2.758  -7.560 -0.34 -0.00    +0.001     3.439
ATOM     23  C15A3TL A 101      17.388  -2.345  -6.803 -0.44 -0.00    +0.000     3.439
ATOM     24  C16A3TL A 101      16.160  -2.986  -6.956 -0.31 -0.00    +0.001     3.439
ATOM     25  C17A3TL A 101      16.024  -4.051  -7.856 -0.34 -0.00    +0.009     3.439
ATOM     26  C12A3TL A 101      18.360  -5.367  -3.787 -0.28 -0.00    +0.009     3.439
ATOM     27  CG1A3TL A 101      19.418  -6.466  -3.741 -0.22 +0.00    +0.012     3.439
ATOM     28  CG2A3TL A 101      18.194  -4.946  -5.236 -0.25 -0.00    +0.012     3.439
ATOM     29  C3 A3TL A 101      17.208  -2.059  -0.304 -0.30 -0.00    +0.066     3.439
ATOM     30  C4 A3TL A 101      18.161  -3.181   0.025 -0.28 +0.01    -0.056     3.439
ATOM     31  C5 A3TL A 101      17.717  -4.307   0.725 -0.39 -0.00    +0.007     3.439
ATOM     32  C6 A3TL A 101      18.602  -5.349   1.025 +0.31 -0.00    +0.001     3.439
ATOM     33  C7 A3TL A 101      19.942  -5.246   0.642 +0.37 -0.00    +0.000     3.439
ATOM     34  C8 A3TL A 101      20.381  -4.109  -0.044 -0.23 -0.00    +0.001     3.439
ATOM     35  C9 A3TL A 101      19.498  -3.082  -0.362 -0.26 -0.00    +0.007     3.439
ATOM     36  O1 A3TL A 101      15.185  -0.362  -1.982 +0.24 -0.05    -0.391     3.439
ATOM     37  H1 A3TL A 101      15.117  -0.435  -1.037 +0.11 +0.06    +0.210     3.439
ATOM     38  C52A3TL A 101      17.492  -0.217  -2.421 -0.29 -0.03    +0.171     3.439
ATOM     39  C51A3TL A 101      17.320   1.113  -1.702 -0.34 -0.02    +0.120     3.439
ATOM     40  C53A3TL A 101      17.743   2.192  -2.711 +0.52 -0.01    +0.066     3.439
ATOM     41  C54A3TL A 101      17.997   1.660  -4.100 -0.47 +0.01    -0.056     3.439
ATOM     42  C55A3TL A 101      19.293   1.409  -4.554 -0.36 -0.00    +0.007     3.439
ATOM     43  C56A3TL A 101      19.522   0.905  -5.836 -0.25 -0.00    +0.001     3.439
ATOM     44  C57A3TL A 101      18.423   0.649  -6.653 -0.43 -0.00    +0.000     3.439
ATOM     45  C58A3TL A 101      17.122   0.894  -6.196 +0.00 -0.00    +0.001     3.439
ATOM     46  C59A3TL A 101      16.907   1.393  -4.917 -0.46 -0.00    +0.007     3.439
ATOM     47  N51A3TL A 101      18.141   1.140  -0.490 -0.09 +0.13    -0.352     3.439
ATOM     48  C61A3TL A 101      18.559   2.232   0.154 -0.25 -0.11    +0.241     3.439
ATOM     49  O52A3TL A 101      18.326   3.361  -0.238 -0.24 +0.08    -0.271     3.439
ATOM     50  H51A3TL A 101      18.421   0.239  -0.102 +0.11 -0.08    +0.163     3.439
ATOM     51  C60A3TL A 101      19.365   1.992   1.410 -0.27 -0.13    +0.180     3.439
ATOM     52  N52A3TL A 101      19.441   3.208   2.210 +0.01 +0.20    -0.346     3.439
ATOM     53  C69A3TL A 101      20.103   4.316   1.879 -0.03 -0.11    +0.240     3.439
ATOM     54  O54A3TL A 101      20.718   4.431   0.826 +0.13 +0.16    -0.271     3.439
ATOM     55  H52A3TL A 101      18.944   3.211   3.101 -0.00 -0.07    +0.163     3.439
ATOM     56  C68A3TL A 101      20.072   5.429   2.913 -0.25 -0.02    +0.174     3.439
ATOM     57  C70A3TL A 101      21.406   5.510   3.642 -0.08 -0.00    +0.042     3.439
ATOM     58  N54A3TL A 101      19.006   5.212   3.866 -0.09 +0.03    -0.324     3.439
ATOM     59  C81A3TL A 101      19.025   4.368   4.896 -0.14 -0.09    +0.361     3.439
ATOM     60  O58A3TL A 101      19.999   4.099   5.578 -0.66 +0.10    -0.238     3.439
ATOM     61  H54A3TL A 101      18.155   5.759   3.736 +0.09 +0.01    +0.165     3.439
ATOM     62  O59A3TL A 101      17.776   3.731   5.219 -0.13 +0.06    -0.299     3.439
ATOM     63  CA5A3TL A 101      16.926   4.176   6.283 -0.10 -0.04    +0.219     3.439
ATOM     64  C50A3TL A 101      16.074   5.366   5.896 -0.18 -0.00    -0.034     3.439
ATOM     65  C63A3TL A 101      15.680   6.280   6.887 -0.19 +0.00    +0.009     3.439
ATOM     66  C64A3TL A 101      14.883   7.381   6.568 -0.15 +0.00    +0.001     3.439
ATOM     67  C65A3TL A 101      14.490   7.569   5.245 -0.18 +0.00    +0.000     3.439
ATOM     68  C66A3TL A 101      14.875   6.666   4.251 -0.25 +0.00    +0.001     3.439
ATOM     69  C67A3TL A 101      15.669   5.563   4.579 -0.21 +0.00    +0.009     3.439
ATOM     70  C62A3TL A 101      18.780   0.858   2.255 -0.33 -0.00    +0.009     3.439
ATOM     71  CG5A3TL A 101      17.252   0.906   2.324 -0.34 -0.00    +0.012     3.439
ATOM     72  CG6A3TL A 101      19.220  -0.500   1.729 -0.38 -0.01    +0.012     3.439
ATOM     73  O51A3TL A 101      18.511  -0.905  -1.731 -0.09 +0.16    -0.391     3.439
ATOM     74  H51A3TL A 101      19.192  -1.094  -2.367 +0.09 -0.11    +0.210     3.439
TER
ENDMDL
MODEL        9
USER    Run = 9
USER    Cluster Rank = 8
USER    Number of conformations in this cluster = 1
USER  
USER    RMSD from reference structure       = 3.202 A
USER  
USER    Estimated Free Energy of Binding    =   -1.46 kcal/mol  [=(1)+(2)+(3)-(4)]
USER    Estimated Inhibition Constant, Ki   =   85.46 mM (millimolar)  [Temperature = 298.15 K]
USER    
USER    (1) Final Intermolecular Energy     =   -9.51 kcal/mol
USER        vdW + Hbond + desolv Energy     =   -9.32 kcal/mol
USER        Electrostatic Energy            =   -0.19 kcal/mol
USER    (2) Final Total Internal Energy     =   -2.29 kcal/mol
USER    (3) Torsional Free Energy           =   +8.05 kcal/mol
USER    (4) Unbound System's Energy  [=(2)] =   -2.29 kcal/mol
USER    
USER    
USER  
USER    DPF = dock.dpf
USER    NEWDPF move	lig2p3b.pdbqt
USER    NEWDPF about	17.085000 -0.070000 0.744000
USER    NEWDPF tran0	16.688445 3.033112 1.925638
USER    NEWDPF axisangle0	0.897915 -0.164850 0.408134 173.948197
USER    NEWDPF quaternion0	0.896663 -0.164620 0.407565 0.052787
USER    NEWDPF dihe0	45.12 179.65 -86.28 162.46 153.34 -51.55 -179.92 -145.16 161.38 -138.83 103.54 157.36 178.60 168.03 -179.68 -86.77 -23.56 -165.14 -113.49 -161.19 70.15 -91.03 -105.75 -66.24 -53.71 56.39 -32.51 
USER  
USER                              x       y       z    vdW   Elec        q     RMS 
ATOM      1  C2 A3TL A 101      18.193   1.734   3.985 -0.23 -0.05    +0.171     3.202
ATOM      2  C1 A3TL A 101      17.768   0.988   2.713 -0.25 -0.03    +0.120     3.202
ATOM      3  N1 A3TL A 101      18.150   1.714   1.493 -0.05 +0.11    -0.352     3.202
ATOM      4  C11A3TL A 101      18.607   1.113   0.386 -0.18 -0.13    +0.241     3.202
ATOM      5  O2 A3TL A 101      18.866  -0.086   0.341 -0.13 +0.17    -0.271     3.202
ATOM      6  H1 A3TL A 101      18.063   2.730   1.489 +0.10 -0.04    +0.163     3.202
ATOM      7  C10A3TL A 101      18.807   1.986  -0.828 -0.32 -0.11    +0.180     3.202
ATOM      8  N2 A3TL A 101      19.257   1.224  -1.976 -0.22 +0.27    -0.346     3.202
ATOM      9  C19A3TL A 101      18.578   1.191  -3.127 -0.36 -0.08    +0.240     3.202
ATOM     10  O4 A3TL A 101      17.432   1.608  -3.228 -0.24 +0.03    -0.271     3.202
ATOM     11  H2 A3TL A 101      20.125   0.693  -1.904 -0.08 -0.22    +0.163     3.202
ATOM     12  C18A3TL A 101      19.317   0.597  -4.303 +0.17 -0.04    +0.174     3.202
ATOM     13  C20A3TL A 101      19.308   1.579  -5.460 -0.52 -0.01    +0.042     3.202
ATOM     14  N4 A3TL A 101      18.822  -0.699  -4.733 -0.18 +0.05    -0.324     3.202
ATOM     15  C31A3TL A 101      17.628  -0.783  -5.331 -0.23 -0.05    +0.361     3.202
ATOM     16  O8 A3TL A 101      16.987   0.191  -5.656 -0.35 +0.01    -0.238     3.202
ATOM     17  H4 A3TL A 101      19.381  -1.539  -4.581 +0.09 -0.02    +0.165     3.202
ATOM     18  O9 A3TL A 101      17.074  -2.083  -5.635 -0.22 +0.06    -0.299     3.202
ATOM     19  CA A3TL A 101      17.848  -3.298  -5.610 -0.25 -0.06    +0.219     3.202
ATOM     20  C  A3TL A 101      17.868  -4.035  -4.273 -0.24 +0.01    -0.034     3.202
ATOM     21  C13A3TL A 101      17.842  -3.295  -3.080 -0.23 -0.00    +0.009     3.202
ATOM     22  C14A3TL A 101      17.844  -3.919  -1.830 -0.23 -0.00    +0.001     3.202
ATOM     23  C15A3TL A 101      17.896  -5.307  -1.761 -0.23 +0.00    +0.000     3.202
ATOM     24  C16A3TL A 101      17.920  -6.056  -2.936 -0.21 +0.00    +0.001     3.202
ATOM     25  C17A3TL A 101      17.906  -5.419  -4.183 -0.23 -0.00    +0.009     3.202
ATOM     26  C12A3TL A 101      17.540   2.770  -1.225 +0.02 -0.00    +0.009     3.202
ATOM     27  CG1A3TL A 101      16.265   1.959  -1.017 +0.50 +0.00    +0.012     3.202
ATOM     28  CG2A3TL A 101      17.398   4.065  -0.444 -0.19 -0.00    +0.012     3.202
ATOM     29  C3 A3TL A 101      18.335  -0.438   2.754 -0.33 -0.03    +0.066     3.202
ATOM     30  C4 A3TL A 101      18.114  -1.064   4.108 -0.39 +0.02    -0.056     3.202
ATOM     31  C5 A3TL A 101      16.865  -0.985   4.731 -0.31 -0.00    +0.007     3.202
ATOM     32  C6 A3TL A 101      16.661  -1.570   5.986 -0.28 +0.00    +0.001     3.202
ATOM     33  C7 A3TL A 101      17.722  -2.215   6.626 +1.12 -0.00    +0.000     3.202
ATOM     34  C8 A3TL A 101      18.973  -2.277   6.002 -0.42 -0.00    +0.001     3.202
ATOM     35  C9 A3TL A 101      19.172  -1.714   4.745 -0.41 -0.00    +0.007     3.202
ATOM     36  O1 A3TL A 101      19.199   1.002   4.636 -0.16 +0.14    -0.391     3.202
ATOM     37  H1 A3TL A 101      19.008   0.967   5.566 +0.14 -0.04    +0.210     3.202
ATOM     38  C52A3TL A 101      18.754   3.140   3.761 -0.13 -0.06    +0.171     3.202
ATOM     39  C51A3TL A 101      18.007   4.003   2.755 -0.22 -0.02    +0.120     3.202
ATOM     40  C53A3TL A 101      19.080   4.582   1.819 -0.35 -0.01    +0.066     3.202
ATOM     41  C54A3TL A 101      19.900   5.683   2.444 -0.25 +0.00    -0.056     3.202
ATOM     42  C55A3TL A 101      19.622   7.028   2.189 +0.66 +0.00    +0.007     3.202
ATOM     43  C56A3TL A 101      20.376   8.044   2.779 -0.33 +0.00    +0.001     3.202
ATOM     44  C57A3TL A 101      21.411   7.686   3.639 +0.27 +0.00    +0.000     3.202
ATOM     45  C58A3TL A 101      21.688   6.338   3.901 -0.34 +0.00    +0.001     3.202
ATOM     46  C59A3TL A 101      20.928   5.336   3.310 +0.25 -0.00    +0.007     3.202
ATOM     47  N51A3TL A 101      17.258   5.052   3.449 -0.05 -0.00    -0.352     3.202
ATOM     48  C61A3TL A 101      16.623   6.077   2.876 -0.18 +0.03    +0.241     3.202
ATOM     49  O52A3TL A 101      16.637   6.276   1.675 -0.24 -0.04    -0.271     3.202
ATOM     50  H51A3TL A 101      17.217   4.994   4.466 +0.07 -0.01    +0.163     3.202
ATOM     51  C60A3TL A 101      15.885   7.005   3.813 -0.17 +0.04    +0.180     3.202
ATOM     52  N52A3TL A 101      16.186   6.678   5.201 -0.04 -0.07    -0.346     3.202
ATOM     53  C69A3TL A 101      17.367   6.841   5.799 -0.12 +0.07    +0.240     3.202
ATOM     54  O54A3TL A 101      18.340   7.315   5.227 -0.13 -0.15    -0.271     3.202
ATOM     55  H52A3TL A 101      15.429   6.290   5.763 +0.06 +0.03    +0.163     3.202
ATOM     56  C68A3TL A 101      17.437   6.370   7.242 -0.07 -0.01    +0.174     3.202
ATOM     57  C70A3TL A 101      17.589   4.856   7.297 -0.21 -0.02    +0.042     3.202
ATOM     58  N54A3TL A 101      16.253   6.770   7.969 -0.05 -0.06    -0.324     3.202
ATOM     59  C81A3TL A 101      15.423   5.967   8.633 -0.09 +0.07    +0.361     3.202
ATOM     60  O58A3TL A 101      15.743   4.966   9.251 -0.25 -0.03    -0.238     3.202
ATOM     61  H54A3TL A 101      16.031   7.765   7.974 +0.04 +0.06    +0.165     3.202
ATOM     62  O59A3TL A 101      14.032   6.332   8.610 -0.18 -0.09    -0.299     3.202
ATOM     63  CA5A3TL A 101      13.566   7.597   8.123 -0.10 +0.06    +0.219     3.202
ATOM     64  C50A3TL A 101      13.314   7.596   6.631 -0.12 -0.01    -0.034     3.202
ATOM     65  C63A3TL A 101      13.056   6.379   5.979 +0.08 +0.00    +0.009     3.202
ATOM     66  C64A3TL A 101      12.833   6.339   4.601 -0.38 +0.00    +0.001     3.202
ATOM     67  C65A3TL A 101      12.858   7.529   3.878 -0.28 +0.00    +0.000     3.202
ATOM     68  C66A3TL A 101      13.115   8.745   4.516 -0.18 +0.00    +0.001     3.202
ATOM     69  C67A3TL A 101      13.343   8.777   5.895 -0.13 +0.00    +0.009     3.202
ATOM     70  C62A3TL A 101      16.228   8.473   3.547 -0.26 +0.00    +0.009     3.202
ATOM     71  CG5A3TL A 101      16.416   9.275   4.837 -0.17 +0.01    +0.012     3.202
ATOM     72  CG6A3TL A 101      17.476   8.598   2.687 -0.17 +0.00    +0.012     3.202
ATOM     73  O51A3TL A 101      18.664   3.814   4.996 -0.12 +0.10    -0.391     3.202
ATOM     74  H51A3TL A 101      18.275   3.205   5.613 +0.11 -0.05    +0.210     3.202
TER
ENDMDL
MODEL        1
USER    Run = 1
USER    Cluster Rank = 9
USER    Number of conformations in this cluster = 1
USER  
USER    RMSD from reference structure       = 3.381 A
USER  
USER    Estimated Free Energy of Binding    =   +1.71 kcal/mol  [=(1)+(2)+(3)-(4)]
USER    
USER    (1) Final Intermolecular Energy     =   -6.34 kcal/mol
USER        vdW + Hbond + desolv Energy     =   -6.31 kcal/mol
USER        Electrostatic Energy            =   -0.03 kcal/mol
USER    (2) Final Total Internal Energy     =   -0.29 kcal/mol
USER    (3) Torsional Free Energy           =   +8.05 kcal/mol
USER    (4) Unbound System's Energy  [=(2)] =   -0.29 kcal/mol
USER    
USER    
USER  
USER    DPF = dock.dpf
USER    NEWDPF move	lig2p3b.pdbqt
USER    NEWDPF about	17.085000 -0.070000 0.744000
USER    NEWDPF tran0	18.232608 0.188986 0.218944
USER    NEWDPF axisangle0	-0.126080 0.927110 0.352946 178.566736
USER    NEWDPF quaternion0	-0.126070 0.927038 0.352918 0.012507
USER    NEWDPF dihe0	104.59 82.57 -129.51 179.94 175.42 10.55 -148.55 158.05 -73.60 -17.39 39.28 4.93 90.12 161.71 68.80 59.42 179.99 -97.48 107.24 -33.62 180.00 -3.50 160.22 -179.94 -150.01 91.00 -67.00 
USER  
USER                              x       y       z    vdW   Elec        q     RMS 
ATOM      1  C2 A3TL A 101      15.429  -0.352   0.416 +0.06 +0.07    +0.171     3.381
ATOM      2  C1 A3TL A 101      16.006   1.020   0.784 +0.05 +0.04    +0.120     3.381
ATOM      3  N1 A3TL A 101      17.227   0.907   1.595 -0.09 +0.04    -0.352     3.381
ATOM      4  C11A3TL A 101      18.241   0.083   1.298 -0.15 -0.10    +0.241     3.381
ATOM      5  O2 A3TL A 101      18.182  -0.741   0.391 -0.11 +0.10    -0.271     3.381
ATOM      6  H1 A3TL A 101      17.306   1.488   2.431 +0.09 -0.02    +0.163     3.381
ATOM      7  C10A3TL A 101      19.483   0.202   2.146 -0.30 -0.16    +0.180     3.381
ATOM      8  N2 A3TL A 101      20.172   1.459   1.927 -0.06 +0.37    -0.346     3.381
ATOM      9  C19A3TL A 101      19.948   2.222   0.853 -0.27 -0.25    +0.240     3.381
ATOM     10  O4 A3TL A 101      19.326   1.823  -0.122 -0.24 +0.25    -0.271     3.381
ATOM     11  H2 A3TL A 101      20.853   1.773   2.619 +0.13 -0.22    +0.163     3.381
ATOM     12  C18A3TL A 101      20.518   3.620   0.916 -0.30 -0.15    +0.174     3.381
ATOM     13  C20A3TL A 101      22.010   3.575   0.641 +3.55 -0.06    +0.042     3.381
ATOM     14  N4 A3TL A 101      20.251   4.324   2.157 +0.11 +0.16    -0.324     3.381
ATOM     15  C31A3TL A 101      19.042   4.227   2.722 -0.08 -0.10    +0.361     3.381
ATOM     16  O8 A3TL A 101      18.189   3.468   2.320 -0.15 +0.05    -0.238     3.381
ATOM     17  H4 A3TL A 101      20.979   4.889   2.595 -0.30 -0.07    +0.165     3.381
ATOM     18  O9 A3TL A 101      18.730   5.035   3.880 -0.11 +0.03    -0.299     3.381
ATOM     19  CA A3TL A 101      18.708   4.516   5.224 -0.22 -0.05    +0.219     3.381
ATOM     20  C  A3TL A 101      17.640   5.110   6.138 -0.22 +0.01    -0.034     3.381
ATOM     21  C13A3TL A 101      16.948   6.262   5.729 -0.18 +0.00    +0.009     3.381
ATOM     22  C14A3TL A 101      15.951   6.838   6.519 -0.16 +0.00    +0.001     3.381
ATOM     23  C15A3TL A 101      15.648   6.274   7.754 -0.19 +0.00    +0.000     3.381
ATOM     24  C16A3TL A 101      16.322   5.129   8.173 -0.25 -0.00    +0.001     3.381
ATOM     25  C17A3TL A 101      17.312   4.554   7.366 -0.25 -0.00    +0.009     3.381
ATOM     26  C12A3TL A 101      19.204   0.051   3.654 -0.43 -0.01    +0.009     3.381
ATOM     27  CG1A3TL A 101      18.669   1.336   4.279 -0.35 -0.00    +0.012     3.381
ATOM     28  CG2A3TL A 101      18.205  -1.055   3.946 -0.48 -0.00    +0.012     3.381
ATOM     29  C3 A3TL A 101      16.225   1.834  -0.500 +0.04 +0.01    +0.066     3.381
ATOM     30  C4 A3TL A 101      16.488   3.283  -0.177 -0.30 -0.00    -0.056     3.381
ATOM     31  C5 A3TL A 101      17.764   3.829  -0.352 -0.01 -0.00    +0.007     3.381
ATOM     32  C6 A3TL A 101      18.004   5.176  -0.056 +0.04 -0.00    +0.001     3.381
ATOM     33  C7 A3TL A 101      16.966   5.968   0.441 +0.13 +0.00    +0.000     3.381
ATOM     34  C8 A3TL A 101      15.697   5.410   0.627 -0.46 +0.00    +0.001     3.381
ATOM     35  C9 A3TL A 101      15.450   4.077   0.313 +0.19 +0.00    +0.007     3.381
ATOM     36  O1 A3TL A 101      14.039  -0.242   0.253 +0.35 -0.15    -0.391     3.381
ATOM     37  H1 A3TL A 101      13.628  -0.175   1.108 -0.08 +0.04    +0.210     3.381
ATOM     38  C52A3TL A 101      15.971  -0.964  -0.878 +0.27 +0.03    +0.171     3.381
ATOM     39  C51A3TL A 101      17.142  -0.235  -1.519 -0.31 -0.01    +0.120     3.381
ATOM     40  C53A3TL A 101      16.532   0.668  -2.603 -0.28 -0.00    +0.066     3.381
ATOM     41  C54A3TL A 101      17.324   0.694  -3.888 -0.40 +0.01    -0.056     3.381
ATOM     42  C55A3TL A 101      18.591   1.277  -3.947 -0.53 -0.00    +0.007     3.381
ATOM     43  C56A3TL A 101      19.325   1.288  -5.135 -0.40 -0.00    +0.001     3.381
ATOM     44  C57A3TL A 101      18.765   0.694  -6.263 -0.53 -0.00    +0.000     3.381
ATOM     45  C58A3TL A 101      17.497   0.103  -6.205 -0.50 -0.00    +0.001     3.381
ATOM     46  C59A3TL A 101      16.778   0.096  -5.016 -0.49 -0.00    +0.007     3.381
ATOM     47  N51A3TL A 101      18.092  -1.200  -2.077 -0.08 +0.10    -0.352     3.381
ATOM     48  C61A3TL A 101      17.821  -2.132  -2.994 -0.19 -0.06    +0.241     3.381
ATOM     49  O52A3TL A 101      16.705  -2.309  -3.447 +0.80 +0.12    -0.271     3.381
ATOM     50  H51A3TL A 101      19.051  -1.156  -1.732 +0.08 -0.09    +0.163     3.381
ATOM     51  C60A3TL A 101      18.988  -2.983  -3.438 -0.18 -0.06    +0.180     3.381
ATOM     52  N52A3TL A 101      19.029  -4.230  -2.683 -0.07 +0.09    -0.346     3.381
ATOM     53  C69A3TL A 101      20.071  -5.059  -2.609 -0.08 -0.05    +0.240     3.381
ATOM     54  O54A3TL A 101      21.136  -4.837  -3.171 +0.51 +0.12    -0.271     3.381
ATOM     55  H52A3TL A 101      18.188  -4.490  -2.168 +0.09 -0.02    +0.163     3.381
ATOM     56  C68A3TL A 101      19.841  -6.324  -1.799 -0.30 +0.03    +0.174     3.381
ATOM     57  C70A3TL A 101      20.624  -7.484  -2.398 -0.35 +0.03    +0.042     3.381
ATOM     58  N54A3TL A 101      18.434  -6.655  -1.755 -0.09 -0.06    -0.324     3.381
ATOM     59  C81A3TL A 101      17.552  -6.245  -0.845 -0.03 +0.04    +0.361     3.381
ATOM     60  O58A3TL A 101      17.547  -5.154  -0.300 -0.21 -0.00    -0.238     3.381
ATOM     61  H54A3TL A 101      18.081  -7.263  -2.494 +0.08 +0.06    +0.165     3.381
ATOM     62  O59A3TL A 101      16.522  -7.183  -0.491 -0.22 -0.06    -0.299     3.381
ATOM     63  CA5A3TL A 101      16.196  -8.324  -1.296 -0.09 +0.06    +0.219     3.381
ATOM     64  C50A3TL A 101      15.632  -7.946  -2.649 -0.17 -0.01    -0.034     3.381
ATOM     65  C63A3TL A 101      14.847  -6.787  -2.766 -0.25 +0.00    +0.009     3.381
ATOM     66  C64A3TL A 101      14.300  -6.415  -3.996 -0.29 +0.00    +0.001     3.381
ATOM     67  C65A3TL A 101      14.552  -7.207  -5.114 -0.19 +0.00    +0.000     3.381
ATOM     68  C66A3TL A 101      15.331  -8.362  -5.009 -0.10 +0.00    +0.001     3.381
ATOM     69  C67A3TL A 101      15.872  -8.730  -3.773 -0.13 +0.00    +0.009     3.381
ATOM     70  C62A3TL A 101      18.932  -3.292  -4.936 -0.39 -0.00    +0.009     3.381
ATOM     71  CG5A3TL A 101      18.884  -4.794  -5.224 +0.13 -0.01    +0.012     3.381
ATOM     72  CG6A3TL A 101      17.739  -2.612  -5.591 -0.40 -0.00    +0.012     3.381
ATOM     73  O51A3TL A 101      16.444  -2.252  -0.552 -0.12 -0.05    -0.391     3.381
ATOM     74  H51A3TL A 101      17.382  -2.174  -0.422 +0.12 -0.02    +0.210     3.381
TER
ENDMDL
MODEL       10
USER    Run = 10
USER    Cluster Rank = 10
USER    Number of conformations in this cluster = 1
USER  
USER    RMSD from reference structure       = 3.735 A
USER  
USER    Estimated Free Energy of Binding    =  +11.45 kcal/mol  [=(1)+(2)+(3)-(4)]
USER    
USER    (1) Final Intermolecular Energy     =   +3.39 kcal/mol
USER        vdW + Hbond + desolv Energy     =   +3.19 kcal/mol
USER        Electrostatic Energy            =   +0.20 kcal/mol
USER    (2) Final Total Internal Energy     =   +0.02 kcal/mol
USER    (3) Torsional Free Energy           =   +8.05 kcal/mol
USER    (4) Unbound System's Energy  [=(2)] =   +0.02 kcal/mol
USER    
USER    
USER  
USER    DPF = dock.dpf
USER    NEWDPF move	lig2p3b.pdbqt
USER    NEWDPF about	17.085000 -0.070000 0.744000
USER    NEWDPF tran0	16.312227 1.718487 0.522800
USER    NEWDPF axisangle0	-0.824494 0.028084 0.565174 59.323128
USER    NEWDPF quaternion0	-0.408022 0.013898 0.279691 0.868964
USER    NEWDPF dihe0	-104.94 -96.79 -124.04 179.78 42.99 161.75 -17.55 -179.96 -7.85 12.92 105.57 -167.86 72.76 23.03 -176.64 63.87 -55.84 -22.72 161.73 -24.21 176.04 -96.27 19.51 -180.00 -24.91 -52.27 -9.60 
USER  
USER                              x       y       z    vdW   Elec        q     RMS 
ATOM      1  C2 A3TL A 101      18.923   0.630   0.087 -0.24 -0.12    +0.171     3.735
ATOM      2  C1 A3TL A 101      18.533   1.259   1.430 -0.24 -0.06    +0.120     3.735
ATOM      3  N1 A3TL A 101      17.764   0.331   2.272 -0.06 +0.09    -0.352     3.735
ATOM      4  C11A3TL A 101      16.425   0.289   2.298 -0.30 +0.01    +0.241     3.735
ATOM      5  O2 A3TL A 101      15.724   1.110   1.714 -0.21 -0.09    -0.271     3.735
ATOM      6  H1 A3TL A 101      18.278  -0.317   2.870 +0.11 -0.06    +0.163     3.735
ATOM      7  C10A3TL A 101      15.795  -0.824   3.098 +2.67 +0.03    +0.180     3.735
ATOM      8  N2 A3TL A 101      15.948  -2.112   2.450 +1.60 -0.08    -0.346     3.735
ATOM      9  C19A3TL A 101      17.053  -2.450   1.779 -0.26 -0.01    +0.240     3.735
ATOM     10  O4 A3TL A 101      17.913  -1.636   1.470 -0.18 +0.08    -0.271     3.735
ATOM     11  H2 A3TL A 101      15.184  -2.786   2.510 +0.53 +0.06    +0.163     3.735
ATOM     12  C18A3TL A 101      17.174  -3.912   1.416 -0.35 -0.00    +0.174     3.735
ATOM     13  C20A3TL A 101      18.629  -4.258   1.165 -0.17 -0.01    +0.042     3.735
ATOM     14  N4 A3TL A 101      16.353  -4.323   0.290 -0.21 -0.03    -0.324     3.735
ATOM     15  C31A3TL A 101      16.701  -3.954  -0.948 -0.13 +0.01    +0.361     3.735
ATOM     16  O8 A3TL A 101      17.748  -3.400  -1.198 -0.16 +0.03    -0.238     3.735
ATOM     17  H4 A3TL A 101      15.518  -4.889   0.442 +0.08 +0.03    +0.165     3.735
ATOM     18  O9 A3TL A 101      15.815  -4.243  -2.052 -0.06 +0.01    -0.299     3.735
ATOM     19  CA A3TL A 101      16.196  -5.054  -3.181 -0.08 -0.01    +0.219     3.735
ATOM     20  C  A3TL A 101      17.061  -4.355  -4.227 -0.15 +0.01    -0.034     3.735
ATOM     21  C13A3TL A 101      16.893  -4.675  -5.584 -0.25 -0.00    +0.009     3.735
ATOM     22  C14A3TL A 101      17.647  -4.056  -6.583 -0.28 -0.00    +0.001     3.735
ATOM     23  C15A3TL A 101      18.608  -3.114  -6.227 -0.35 -0.00    +0.000     3.735
ATOM     24  C16A3TL A 101      18.785  -2.783  -4.885 -0.36 -0.00    +0.001     3.735
ATOM     25  C17A3TL A 101      18.014  -3.404  -3.894 -0.25 -0.00    +0.009     3.735
ATOM     26  C12A3TL A 101      16.349  -0.927   4.533 +0.01 +0.00    +0.009     3.735
ATOM     27  CG1A3TL A 101      17.746  -1.539   4.575 -0.49 -0.00    +0.012     3.735
ATOM     28  CG2A3TL A 101      16.415   0.425   5.221 -0.42 -0.00    +0.012     3.735
ATOM     29  C3 A3TL A 101      19.799   1.778   2.128 -0.01 -0.06    +0.066     3.735
ATOM     30  C4 A3TL A 101      19.542   2.012   3.596 +2.06 +0.04    -0.056     3.735
ATOM     31  C5 A3TL A 101      19.289   3.301   4.075 +0.43 -0.00    +0.007     3.735
ATOM     32  C6 A3TL A 101      19.048   3.516   5.437 -0.33 -0.00    +0.001     3.735
ATOM     33  C7 A3TL A 101      19.085   2.435   6.322 -0.30 -0.00    +0.000     3.735
ATOM     34  C8 A3TL A 101      19.353   1.151   5.836 -0.03 -0.00    +0.001     3.735
ATOM     35  C9 A3TL A 101      19.573   0.932   4.480 +0.06 -0.00    +0.007     3.735
ATOM     36  O1 A3TL A 101      20.091  -0.131   0.253 -0.21 +0.50    -0.391     3.735
ATOM     37  H1 A3TL A 101      19.875  -0.941   0.701 +0.12 -0.24    +0.210     3.735
ATOM     38  C52A3TL A 101      17.878  -0.306  -0.525 -0.20 -0.05    +0.171     3.735
ATOM     39  C51A3TL A 101      16.572   0.346  -0.955 -0.37 +0.00    +0.120     3.735
ATOM     40  C53A3TL A 101      16.448   0.084  -2.464 -0.39 -0.00    +0.066     3.735
ATOM     41  C54A3TL A 101      17.405   0.895  -3.302 -0.37 +0.01    -0.056     3.735
ATOM     42  C55A3TL A 101      18.787   0.737  -3.181 -0.45 -0.00    +0.007     3.735
ATOM     43  C56A3TL A 101      19.669   1.482  -3.967 +0.51 -0.00    +0.001     3.735
ATOM     44  C57A3TL A 101      19.137   2.383  -4.886 -0.06 -0.00    +0.000     3.735
ATOM     45  C58A3TL A 101      17.751   2.539  -5.013 +0.52 -0.00    +0.001     3.735
ATOM     46  C59A3TL A 101      16.884   1.790  -4.227 +0.79 -0.00    +0.007     3.735
ATOM     47  N51A3TL A 101      16.598   1.777  -0.645 -0.17 -0.03    -0.352     3.735
ATOM     48  C61A3TL A 101      17.497   2.661  -1.083 -0.04 -0.04    +0.241     3.735
ATOM     49  O52A3TL A 101      18.448   2.350  -1.776 -0.06 +0.11    -0.271     3.735
ATOM     50  H51A3TL A 101      15.859   2.131  -0.038 +0.08 +0.07    +0.163     3.735
ATOM     51  C60A3TL A 101      17.281   4.093  -0.652 +0.39 -0.01    +0.180     3.735
ATOM     52  N52A3TL A 101      16.128   4.192   0.236 -0.25 -0.04    -0.346     3.735
ATOM     53  C69A3TL A 101      15.381   5.282   0.420 -0.31 +0.05    +0.240     3.735
ATOM     54  O54A3TL A 101      15.586   6.334  -0.172 +0.80 -0.08    -0.271     3.735
ATOM     55  H52A3TL A 101      15.870   3.357   0.761 +0.08 +0.04    +0.163     3.735
ATOM     56  C68A3TL A 101      14.266   5.142   1.442 +0.93 +0.03    +0.174     3.735
ATOM     57  C70A3TL A 101      13.002   5.828   0.941 +1.93 +0.00    +0.042     3.735
ATOM     58  N54A3TL A 101      14.661   5.712   2.711 -0.20 -0.05    -0.324     3.735
ATOM     59  C81A3TL A 101      15.348   5.099   3.674 +0.02 +0.02    +0.361     3.735
ATOM     60  O58A3TL A 101      16.236   4.282   3.504 -0.19 +0.01    -0.238     3.735
ATOM     61  H54A3TL A 101      14.385   6.678   2.887 +0.08 +0.03    +0.165     3.735
ATOM     62  O59A3TL A 101      14.999   5.450   5.025 -0.14 -0.02    -0.299     3.735
ATOM     63  CA5A3TL A 101      15.904   5.303   6.126 -0.13 +0.01    +0.219     3.735
ATOM     64  C50A3TL A 101      16.154   6.604   6.858 -0.15 -0.01    -0.034     3.735
ATOM     65  C63A3TL A 101      15.713   7.809   6.287 -0.12 +0.00    +0.009     3.735
ATOM     66  C64A3TL A 101      15.939   9.029   6.927 -0.09 +0.00    +0.001     3.735
ATOM     67  C65A3TL A 101      16.601   9.036   8.153 -0.05 +0.00    +0.000     3.735
ATOM     68  C66A3TL A 101      17.045   7.844   8.730 +0.01 +0.00    +0.001     3.735
ATOM     69  C67A3TL A 101      16.819   6.626   8.081 -0.14 +0.00    +0.009     3.735
ATOM     70  C62A3TL A 101      18.514   4.672   0.045 -0.02 -0.00    +0.009     3.735
ATOM     71  CG5A3TL A 101      18.216   5.144   1.470 -0.37 -0.00    +0.012     3.735
ATOM     72  CG6A3TL A 101      19.652   3.662   0.074 -0.30 -0.01    +0.012     3.735
ATOM     73  O51A3TL A 101      18.450  -0.843  -1.697 -0.09 +0.15    -0.391     3.735
ATOM     74  H51A3TL A 101      18.986  -1.580  -1.426 +0.11 -0.11    +0.210     3.735
TER
ENDMDL


AVSFLD: # AVS field file
AVSFLD: #
AVSFLD: # Created by AutoDock
AVSFLD: #
AVSFLD: ndim=2           # number of dimensions in the field
AVSFLD: nspace=1         # number of physical coordinates
AVSFLD: veclen=7         # vector size
AVSFLD: dim1=74          # atoms
AVSFLD: dim2=10          # conformations
AVSFLD: data=Real       # data type (byte,integer,Real,double)
AVSFLD: field=uniform    # field coordinate layout
AVSFLD: label= x y z vdW Elec q RMS
AVSFLD: variable 1 file = dock.dlg.pdb filetype = ascii offset = 5 stride = 12
AVSFLD: variable 2 file = dock.dlg.pdb filetype = ascii offset = 6 stride = 12
AVSFLD: variable 3 file = dock.dlg.pdb filetype = ascii offset = 7 stride = 12
AVSFLD: variable 4 file = dock.dlg.pdb filetype = ascii offset = 8 stride = 12
AVSFLD: variable 5 file = dock.dlg.pdb filetype = ascii offset = 9 stride = 12
AVSFLD: variable 6 file = dock.dlg.pdb filetype = ascii offset = 10 stride = 12
AVSFLD: variable 7 file = dock.dlg.pdb filetype = ascii offset = 11 stride = 12
AVSFLD: # end of file

>>> Closing the docking parameter file (DPF)...
This docking finished at:			0:07 45" a.m., 11/25/2025


________________________________________________________________________________

.\autodock4.exe: Successful Completion on "LAPTOP-PFTQOH6G"

Real= 1h 19m 49.05s,  CPU= 2m 16.89s,  System= 11.38s
________________________________________________________________________________

