REMARK  14 active torsions:
REMARK  status: ('A' for Active; 'I' for Inactive)
REMARK    1  A    between atoms: S1@A_1  and  C36@A_39 
REMARK    2  A    between atoms: S1@A_1  and  C38@A_41 
REMARK    3  A    between atoms: C7@A_7  and  C35@A_38 
REMARK    4  A    between atoms: O14@A_14  and  C15@A_16 
REMARK    5  A    between atoms: C15@A_16  and  C17@A_19 
REMARK    6  A    between atoms: N16@A_17  and  C17@A_19 
REMARK       I    between atoms: N16@A_17  and  C27@A_30 
REMARK    7  A    between atoms: C17@A_19  and  C18@A_20 
REMARK    8  A    between atoms: C18@A_20  and  C19@A_21 
REMARK    9  A    between atoms: N25@A_27  and  C26@A_29 
REMARK       I    between atoms: N25@A_27  and  C32@A_35 
REMARK   10  A    between atoms: C26@A_29  and  C27@A_30 
REMARK   11  A    between atoms: C26@A_29  and  C29@A_32 
REMARK   12  A    between atoms: C32@A_35  and  C34@A_37 
REMARK   13  A    between atoms: C34@A_37  and  C35@A_38 
REMARK   14  A    between atoms: C34@A_37  and  C36@A_39 
ROOT
HETATM    1  N25AHYB A 201       5.357  18.770   3.272  0.50  9.11    -0.347 N 
ATOM      2  H25AHYB A 201       4.974  19.209   2.435  1.00  0.00     0.163 HD
HETATM    3  C32AHYB A 201       4.555  18.678   4.369  0.50  9.72     0.223 C 
HETATM    4  O33AHYB A 201       4.931  18.194   5.443  0.50 12.45    -0.273 OA
ENDROOT
BRANCH   3   5
HETATM    5  C34AHYB A 201       3.155  19.310   4.218  0.50 12.18     0.096 C 
BRANCH   5   6
HETATM    6  C35AHYB A 201       3.214  20.115   2.894  0.50 12.81     0.054 C 
BRANCH   6   7
HETATM    7  C7 AHYB A 201       1.886  20.861   2.675  0.50 16.97    -0.046 A 
HETATM    8  C6 AHYB A 201       1.451  21.896   3.425  0.50 20.42     0.008 A 
HETATM    9  C5 AHYB A 201       0.166  22.510   3.146  0.50 22.47     0.001 A 
HETATM   10  C4 AHYB A 201      -0.610  22.042   2.130  0.50 22.25     0.012 A 
HETATM   11  C9 AHYB A 201      -0.178  20.939   1.316  0.50 22.66    -0.025 A 
HETATM   12  C8 AHYB A 201       1.052  20.313   1.557  0.50 19.85    -0.020 A 
HETATM   13  C10AHYB A 201      -1.016  20.478   0.245  0.50 19.04     0.012 A 
HETATM   14  C13AHYB A 201       1.454  19.233   0.762  0.50 17.94     0.013 A 
HETATM   15  C12AHYB A 201       0.633  18.776  -0.272  0.50 23.42     0.001 A 
HETATM   16  C11AHYB A 201      -0.612  19.417  -0.522  0.50 18.84     0.001 A 
ENDBRANCH   6   7
ENDBRANCH   5   6
BRANCH   5  17
HETATM   17  C36AHYB A 201       2.772  20.224   5.426  0.50 11.71     0.155 C 
BRANCH  17  18
HETATM   18  S1 AHYB A 201       1.824  19.308   6.630  0.50 15.61     0.152 S 
HETATM   19  O2 AHYB A 201       2.376  17.982   6.619  0.50 19.88    -0.227 OA
HETATM   20  O3 AHYB A 201       1.724  19.994   7.876  0.50 19.03    -0.227 OA
BRANCH  18  21
HETATM   21  C38AHYB A 201       0.113  19.226   5.954  0.50 17.42     0.053 C 
HETATM   22  C37AHYB A 201      -0.747  18.194   6.726  0.50 20.06     0.031 C 
HETATM   23  C39AHYB A 201       0.270  18.691   4.510  0.50 16.30     0.031 C 
HETATM   24  C40AHYB A 201      -0.526  20.637   5.952  0.50 19.07     0.031 C 
ENDBRANCH  18  21
ENDBRANCH  17  18
ENDBRANCH   5  17
ENDBRANCH   3   5
BRANCH   1  25
HETATM   25  C26AHYB A 201       6.756  18.270   3.218  0.50  4.80     0.180 C 
BRANCH  25  26
HETATM   26  C27AHYB A 201       7.612  19.594   3.276  0.50  7.43     0.241 C 
HETATM   27  N16AHYB A 201       8.489  19.609   4.345  0.50  8.13    -0.352 N 
ATOM     28  H16AHYB A 201       8.510  18.801   4.967  1.00  0.00     0.163 HD
HETATM   29  O28AHYB A 201       7.580  20.492   2.450  0.50  8.24    -0.271 OA
BRANCH  27  30
HETATM   30  C17AHYB A 201       9.394  20.736   4.629  0.50  9.99     0.112 C 
BRANCH  30  31
HETATM   31  C15AHYB A 201      10.796  20.125   4.908  0.50  8.24     0.189 C 
BRANCH  31  32
HETATM   32  O14AHYB A 201      10.525  18.891   5.668  0.50 12.26    -0.399 OA
ATOM     33  H14AHYB A 201       9.980  18.366   5.092  1.00  0.00     0.209 HD
ENDBRANCH  31  32
ENDBRANCH  30  31
BRANCH  30  34
HETATM   34  C18AHYB A 201       8.839  21.491   5.860  0.50  6.21     0.065 C 
BRANCH  34  35
HETATM   35  C19AHYB A 201       7.602  20.979   6.568  0.50  6.94    -0.056 A 
HETATM   36  C20AHYB A 201       6.343  21.578   6.449  0.50 16.39     0.007 A 
HETATM   37  C21AHYB A 201       5.194  21.061   7.061  0.50 20.94     0.001 A 
HETATM   38  C22AHYB A 201       5.308  19.899   7.833  0.50 21.72     0.000 A 
HETATM   39  C23AHYB A 201       6.544  19.268   7.947  0.50 17.14     0.001 A 
HETATM   40  C24AHYB A 201       7.679  19.799   7.327  0.50 16.26     0.007 A 
ENDBRANCH  34  35
ENDBRANCH  30  34
ENDBRANCH  27  30
ENDBRANCH  25  26
BRANCH  25  41
HETATM   41  C29AHYB A 201       7.071  17.399   1.978  0.50  7.39     0.009 C 
HETATM   42  C30AHYB A 201       6.602  15.948   2.180  0.50  6.71     0.012 C 
HETATM   43  C31AHYB A 201       6.393  18.085   0.770  0.50  7.05     0.012 C 
ENDBRANCH  25  41
ENDBRANCH   1  25
TORSDOF 14
