          AutoDock 4.2 Release 4.2.6   
         (C) 1989-2012 The Scripps Research Institute
        AutoDock comes with ABSOLUTELY NO WARRANTY.
        AutoDock is free software, and you are welcome
        to redistribute it under certain conditions;
        for details type 'autodock4 -C'

                     main.cc  $Revision: 1.213 $

                   Compiled on Jul 18 2014 at 15:34:58


This file was created at:			10:15 00" p.m., 12/08/2025
                   on host:		"LAPTOP-PFTQOH6G"
Current Working Directory = "C:\Program Files (x86)\Docking\December 25\0812 DockIt\1BAI DockIt\1BAI Autodock"

      ________________________________________________________________

                   SETTING UP DEFAULT PARAMETER LIBRARY
      ________________________________________________________________


Random number generator was seeded with values 904, 1765221300.
Docking parameter file (DPF) used for this docking:		dock.dpf
DPF> autodock_parameter_version 4.2       # used by autodock to validate parameter set

	Autodock parameter version 4.2.
DPF> outlev 1                             # diagnostic output level

Output Level = 1  ADT-COMPATIBLE OUTPUT DURING DOCKING.
DPF> intelec                              # calculate internal electrostatics

Electrostatic energies will be calculated for all non-bonds between moving atoms.
DPF> seed pid time                        # seeds for random generator

Random number generator was seeded with values 904, 1765221300.
DPF> ligand_types A C HD OA N             # atoms types in ligand

DPF> fld 1bai.maps.fld                    # grid_data_file

Opening Grid Map Dimensions file:		1bai.maps.fld
Grid Point Spacing =				0.375 Angstroms

Even Number of User-specified Grid Points =	70 x-points
						18 y-points
						38 z-points

Coordinates of Central Grid Point of Maps =	(-3.066, 15.175, 34.828)
Macromolecule file used to create Grid Maps =	1bai.pdbqt
Grid Parameter file used to create Grid Maps =	grid.gpf
Minimum coordinates in grid = (-16.191, 11.800, 27.703)
Maximum coordinates in grid = (10.059, 18.550, 41.953)

DPF> map 1bai.A.map                       # atom-specific affinity map

DPF> map 1bai.C.map                       # atom-specific affinity map

DPF> map 1bai.HD.map                      # atom-specific affinity map

DPF> map 1bai.OA.map                      # atom-specific affinity map

DPF> map 1bai.N.map                       # atom-specific affinity map

DPF> elecmap 1bai.e.map                   # electrostatics map

DPF> desolvmap 1bai.d.map                 # desolvation map

DPF> move lig1bai.pdbqt                   # small molecule

1,4-interactions will be _ignored_ in the non-bonded internal energy calculation.

Ligand PDBQT file = "lig1bai.pdbqt"

INPUT LIGAND PDBQT FILE:
________________________

INPUT-LIGAND-PDBQT: REMARK  29 active torsions:
INPUT-LIGAND-PDBQT: REMARK  status: ('A' for Active; 'I' for Inactive)
INPUT-LIGAND-PDBQT: REMARK    1  A    between atoms: N_1  and  CA_2 
INPUT-LIGAND-PDBQT: REMARK    2  A    between atoms: CA_2  and  C_9 
INPUT-LIGAND-PDBQT: REMARK    3  A    between atoms: CA_2  and  CB_11 
INPUT-LIGAND-PDBQT: REMARK    4  A    between atoms: CA1_3  and  CB1_12 
INPUT-LIGAND-PDBQT: REMARK    5  A    between atoms: CA1_3  and  C1_42 
INPUT-LIGAND-PDBQT: REMARK    6  A    between atoms: CA1_3  and  N1_43 
INPUT-LIGAND-PDBQT: REMARK    7  A    between atoms: CA2_4  and  CB2_13 
INPUT-LIGAND-PDBQT: REMARK    8  A    between atoms: CA2_4  and  C2_45 
INPUT-LIGAND-PDBQT: REMARK    9  A    between atoms: CA2_4  and  N2_46 
INPUT-LIGAND-PDBQT: REMARK   10  A    between atoms: CA3_5  and  CB3_14 
INPUT-LIGAND-PDBQT: REMARK   11  A    between atoms: CA3_5  and  C3_48 
INPUT-LIGAND-PDBQT: REMARK   12  A    between atoms: CA3_5  and  N3_49 
INPUT-LIGAND-PDBQT: REMARK   13  A    between atoms: CA4_6  and  CB4_15 
INPUT-LIGAND-PDBQT: REMARK   14  A    between atoms: CA4_6  and  C4_51 
INPUT-LIGAND-PDBQT: REMARK   15  A    between atoms: CA4_6  and  N4_52 
INPUT-LIGAND-PDBQT: REMARK   16  A    between atoms: CA5_7  and  C5_54 
INPUT-LIGAND-PDBQT: REMARK   17  A    between atoms: CA5_7  and  N5_55 
INPUT-LIGAND-PDBQT: REMARK   18  A    between atoms: CA6_8  and  CB6_17 
INPUT-LIGAND-PDBQT: REMARK   19  A    between atoms: CA6_8  and  C6_57 
INPUT-LIGAND-PDBQT: REMARK   20  A    between atoms: CA6_8  and  N6_58 
INPUT-LIGAND-PDBQT: REMARK       I    between atoms: C_9  and  N1_43 
INPUT-LIGAND-PDBQT: REMARK   21  A    between atoms: CB_11  and  CG_18 
INPUT-LIGAND-PDBQT: REMARK   22  A    between atoms: CB2_13  and  CG3_21 
INPUT-LIGAND-PDBQT: REMARK   23  A    between atoms: CB3_14  and  CG4_22 
INPUT-LIGAND-PDBQT: REMARK   24  A    between atoms: CB4_15  and  CG5_23 
INPUT-LIGAND-PDBQT: REMARK   25  A    between atoms: CB6_17  and  CG6_24 
INPUT-LIGAND-PDBQT: REMARK   26  A    between atoms: CG_18  and  CD_25 
INPUT-LIGAND-PDBQT: REMARK   27  A    between atoms: CG5_23  and  CD3_30 
INPUT-LIGAND-PDBQT: REMARK   28  A    between atoms: CG6_24  and  CD4_31 
INPUT-LIGAND-PDBQT: REMARK   29  A    between atoms: CD_25  and  NE_35 
INPUT-LIGAND-PDBQT: REMARK       I    between atoms: NE_35  and  CZ_38 
INPUT-LIGAND-PDBQT: REMARK       I    between atoms: CZ_38  and  NH1_40 
INPUT-LIGAND-PDBQT: REMARK       I    between atoms: C1_42  and  N2_46 
INPUT-LIGAND-PDBQT: REMARK       I    between atoms: C3_48  and  N4_52 
INPUT-LIGAND-PDBQT: REMARK       I    between atoms: C4_51  and  N5_55 
INPUT-LIGAND-PDBQT: REMARK       I    between atoms: C5_54  and  N6_58 
INPUT-LIGAND-PDBQT: REMARK       I    between atoms: C6_57  and  N7_59 
INPUT-LIGAND-PDBQT: ROOT
INPUT-LIGAND-PDBQT: HETATM    1  CA3 0Q4 A 125      -1.344  17.561  32.290  1.00 16.89     0.177 C 
INPUT-LIGAND-PDBQT: ENDROOT
INPUT-LIGAND-PDBQT: BRANCH   1   2
INPUT-LIGAND-PDBQT: HETATM    2  CB3 0Q4 A 125      -0.977  17.480  30.778  1.00 18.22     0.073 C 
INPUT-LIGAND-PDBQT: BRANCH   2   3
INPUT-LIGAND-PDBQT: HETATM    3  CG4 0Q4 A 125      -2.103  17.174  29.871  1.00 21.59    -0.056 A 
INPUT-LIGAND-PDBQT: HETATM    4  CD1 0Q4 A 125      -2.597  15.881  29.766  1.00 22.99     0.007 A 
INPUT-LIGAND-PDBQT: HETATM    5  CE1 0Q4 A 125      -3.703  15.588  28.935  1.00 24.00     0.001 A 
INPUT-LIGAND-PDBQT: HETATM    6  CZ1 0Q4 A 125      -4.316  16.604  28.194  1.00 25.64     0.000 A 
INPUT-LIGAND-PDBQT: HETATM    7  CE2 0Q4 A 125      -3.823  17.905  28.283  1.00 27.27     0.001 A 
INPUT-LIGAND-PDBQT: HETATM    8  CD2 0Q4 A 125      -2.708  18.184  29.130  1.00 24.65     0.007 A 
INPUT-LIGAND-PDBQT: ENDBRANCH   2   3
INPUT-LIGAND-PDBQT: ENDBRANCH   1   2
INPUT-LIGAND-PDBQT: BRANCH   1   9
INPUT-LIGAND-PDBQT: HETATM    9  C3  0Q4 A 125      -2.452  16.588  32.781  1.00 15.06     0.241 C 
INPUT-LIGAND-PDBQT: HETATM   10  O2  0Q4 A 125      -2.205  15.388  32.924  1.00 12.51    -0.271 OA
INPUT-LIGAND-PDBQT: HETATM   11  N4  0Q4 A 125      -3.615  17.134  33.138  1.00 14.54    -0.346 N 
INPUT-LIGAND-PDBQT: HETATM   12  H4  0Q4 A 125      -3.768  18.094  33.000  1.00 15.00     0.163 HD
INPUT-LIGAND-PDBQT: BRANCH  11  13
INPUT-LIGAND-PDBQT: HETATM   13  CA4 0Q4 A 125      -4.726  16.356  33.693  1.00 15.81     0.177 C 
INPUT-LIGAND-PDBQT: BRANCH  13  14
INPUT-LIGAND-PDBQT: HETATM   14  CB4 0Q4 A 125      -4.749  16.528  35.238  1.00 17.07     0.045 C 
INPUT-LIGAND-PDBQT: BRANCH  14  15
INPUT-LIGAND-PDBQT: HETATM   15  CG5 0Q4 A 125      -5.782  15.732  36.012  1.00 18.50     0.116 C 
INPUT-LIGAND-PDBQT: BRANCH  15  16
INPUT-LIGAND-PDBQT: HETATM   16  CD3 0Q4 A 125      -7.133  16.453  36.133  1.00 26.68     0.172 C 
INPUT-LIGAND-PDBQT: HETATM   17  OE1 0Q4 A 125      -7.141  17.657  36.450  1.00 29.71    -0.648 OA
INPUT-LIGAND-PDBQT: HETATM   18  OE2 0Q4 A 125      -8.204  15.829  35.910  1.00 31.35    -0.648 OA
INPUT-LIGAND-PDBQT: ENDBRANCH  15  16
INPUT-LIGAND-PDBQT: ENDBRANCH  14  15
INPUT-LIGAND-PDBQT: ENDBRANCH  13  14
INPUT-LIGAND-PDBQT: BRANCH  13  19
INPUT-LIGAND-PDBQT: HETATM   19  C4  0Q4 A 125      -6.111  16.673  33.120  1.00 17.52     0.241 C 
INPUT-LIGAND-PDBQT: HETATM   20  O3  0Q4 A 125      -6.534  17.828  33.035  1.00 17.50    -0.271 OA
INPUT-LIGAND-PDBQT: HETATM   21  N5  0Q4 A 125      -6.878  15.624  32.875  1.00 19.61    -0.346 N 
INPUT-LIGAND-PDBQT: HETATM   22  H5  0Q4 A 125      -6.553  14.715  33.060  1.00 15.00     0.163 HD
INPUT-LIGAND-PDBQT: BRANCH  21  23
INPUT-LIGAND-PDBQT: HETATM   23  CA5 0Q4 A 125      -8.207  15.787  32.326  1.00 21.82     0.172 C 
INPUT-LIGAND-PDBQT: HETATM   24  CB5 0Q4 A 125      -8.114  15.709  30.814  1.00 22.24     0.042 C 
INPUT-LIGAND-PDBQT: BRANCH  23  25
INPUT-LIGAND-PDBQT: HETATM   25  C5  0Q4 A 125      -9.293  14.800  32.823  1.00 24.09     0.240 C 
INPUT-LIGAND-PDBQT: HETATM   26  O4  0Q4 A 125      -9.026  13.635  33.125  1.00 20.88    -0.271 OA
INPUT-LIGAND-PDBQT: HETATM   27  N6  0Q4 A 125     -10.526  15.295  32.840  1.00 27.66    -0.346 N 
INPUT-LIGAND-PDBQT: HETATM   28  H6  0Q4 A 125     -10.653  16.214  32.548  1.00 15.00     0.163 HD
INPUT-LIGAND-PDBQT: BRANCH  27  29
INPUT-LIGAND-PDBQT: HETATM   29  CA6 0Q4 A 125     -11.710  14.522  33.191  1.00 31.09     0.176 C 
INPUT-LIGAND-PDBQT: BRANCH  29  30
INPUT-LIGAND-PDBQT: HETATM   30  CB6 0Q4 A 125     -12.964  15.412  32.992  1.00 32.55     0.035 C 
INPUT-LIGAND-PDBQT: BRANCH  30  31
INPUT-LIGAND-PDBQT: HETATM   31  CG6 0Q4 A 125     -14.314  14.697  32.633  1.00 32.73     0.002 C 
INPUT-LIGAND-PDBQT: BRANCH  31  32
INPUT-LIGAND-PDBQT: HETATM   32  CD4 0Q4 A 125     -14.579  14.530  31.085  1.00 31.59    -0.004 C 
INPUT-LIGAND-PDBQT: HETATM   33  CE  0Q4 A 125     -15.682  13.524  30.828  1.00 23.29     0.005 C 
INPUT-LIGAND-PDBQT: ENDBRANCH  31  32
INPUT-LIGAND-PDBQT: ENDBRANCH  30  31
INPUT-LIGAND-PDBQT: ENDBRANCH  29  30
INPUT-LIGAND-PDBQT: BRANCH  29  34
INPUT-LIGAND-PDBQT: HETATM   34  C6  0Q4 A 125     -11.748  13.334  32.215  1.00 33.78     0.238 C 
INPUT-LIGAND-PDBQT: HETATM   35  O5  0Q4 A 125     -11.875  12.152  32.650  1.00 34.60    -0.271 OA
INPUT-LIGAND-PDBQT: HETATM   36  N7  0Q4 A 125     -11.613  13.610  30.997  1.00 36.53    -0.368 N 
INPUT-LIGAND-PDBQT: ATOM     37  H72 0Q4 A 125     -11.511  14.562  30.646  1.00  0.00     0.159 HD
INPUT-LIGAND-PDBQT: ATOM     38  H71 0Q4 A 125     -11.638  12.822  30.350  1.00  0.00     0.159 HD
INPUT-LIGAND-PDBQT: ENDBRANCH  29  34
INPUT-LIGAND-PDBQT: ENDBRANCH  27  29
INPUT-LIGAND-PDBQT: ENDBRANCH  23  25
INPUT-LIGAND-PDBQT: ENDBRANCH  21  23
INPUT-LIGAND-PDBQT: ENDBRANCH  13  19
INPUT-LIGAND-PDBQT: ENDBRANCH  11  13
INPUT-LIGAND-PDBQT: ENDBRANCH   1   9
INPUT-LIGAND-PDBQT: BRANCH   1  39
INPUT-LIGAND-PDBQT: HETATM   39  N3  0Q4 A 125      -0.141  17.196  33.047  1.00 16.64    -0.387 N 
INPUT-LIGAND-PDBQT: HETATM   40  C2  0Q4 A 125      -0.003  17.405  34.344  1.00 17.56     0.081 C 
INPUT-LIGAND-PDBQT: HETATM   41  H3  0Q4 A 125       0.591  16.758  32.572  1.00 15.00     0.159 HD
INPUT-LIGAND-PDBQT: BRANCH  40  42
INPUT-LIGAND-PDBQT: HETATM   42  CA2 0Q4 A 125       1.302  16.914  34.957  1.00 17.96     0.123 C 
INPUT-LIGAND-PDBQT: BRANCH  42  43
INPUT-LIGAND-PDBQT: HETATM   43  CB2 0Q4 A 125       1.490  17.417  36.409  1.00 19.32     0.034 C 
INPUT-LIGAND-PDBQT: BRANCH  43  44
INPUT-LIGAND-PDBQT: HETATM   44  CG3 0Q4 A 125       2.859  17.069  37.059  1.00 21.12    -0.020 C 
INPUT-LIGAND-PDBQT: HETATM   45  CD1 0Q4 A 125       3.007  17.622  38.476  1.00 21.22     0.009 C 
INPUT-LIGAND-PDBQT: HETATM   46  CD2 0Q4 A 125       3.060  15.565  37.071  1.00 17.47     0.009 C 
INPUT-LIGAND-PDBQT: ENDBRANCH  43  44
INPUT-LIGAND-PDBQT: ENDBRANCH  42  43
INPUT-LIGAND-PDBQT: BRANCH  42  47
INPUT-LIGAND-PDBQT: HETATM   47  N2  0Q4 A 125       2.510  17.166  34.194  1.00 17.78    -0.350 N 
INPUT-LIGAND-PDBQT: HETATM   48  C1  0Q4 A 125       2.998  16.256  33.370  1.00 17.14     0.241 C 
INPUT-LIGAND-PDBQT: HETATM   49  O1  0Q4 A 125       2.367  15.241  33.103  1.00 18.87    -0.271 OA
INPUT-LIGAND-PDBQT: HETATM   50  HN2 0Q4 A 125       2.990  18.014  34.326  1.00 15.00     0.163 HD
INPUT-LIGAND-PDBQT: BRANCH  48  51
INPUT-LIGAND-PDBQT: HETATM   51  CA1 0Q4 A 125       4.334  16.617  32.670  1.00 18.90     0.180 C 
INPUT-LIGAND-PDBQT: BRANCH  51  52
INPUT-LIGAND-PDBQT: HETATM   52  CB1 0Q4 A 125       4.330  16.367  31.075  1.00 19.28     0.009 C 
INPUT-LIGAND-PDBQT: HETATM   53  CG1 0Q4 A 125       3.098  16.981  30.406  1.00 20.08     0.012 C 
INPUT-LIGAND-PDBQT: HETATM   54  CG2 0Q4 A 125       5.579  16.993  30.422  1.00 19.54     0.012 C 
INPUT-LIGAND-PDBQT: ENDBRANCH  51  52
INPUT-LIGAND-PDBQT: BRANCH  51  55
INPUT-LIGAND-PDBQT: HETATM   55  N1  0Q4 A 125       5.477  15.939  33.284  1.00 19.10    -0.346 N 
INPUT-LIGAND-PDBQT: HETATM   56  C   0Q4 A 125       6.583  16.583  33.691  1.00 21.89     0.249 C 
INPUT-LIGAND-PDBQT: HETATM   57  O   0Q4 A 125       6.732  17.813  33.564  1.00 22.48    -0.271 OA
INPUT-LIGAND-PDBQT: HETATM   58  H1  0Q4 A 125       5.375  14.971  33.407  1.00 15.00     0.163 HD
INPUT-LIGAND-PDBQT: BRANCH  56  59
INPUT-LIGAND-PDBQT: HETATM   59  CA  0Q4 A 125       7.738  15.704  34.269  1.00 21.76     0.274 C 
INPUT-LIGAND-PDBQT: BRANCH  59  60
INPUT-LIGAND-PDBQT: HETATM   60  N   0Q4 A 125       9.011  16.052  33.566  1.00 21.27    -0.067 N 
INPUT-LIGAND-PDBQT: HETATM   61  H   0Q4 A 125       8.921  15.936  32.547  1.00 15.00     0.275 HD
INPUT-LIGAND-PDBQT: HETATM   62  H2  0Q4 A 125       9.206  17.055  33.813  1.00 15.00     0.275 HD
INPUT-LIGAND-PDBQT: HETATM   63  HN3 0Q4 A 125       9.782  15.453  33.901  1.00 15.00     0.275 HD
INPUT-LIGAND-PDBQT: ENDBRANCH  59  60
INPUT-LIGAND-PDBQT: BRANCH  59  64
INPUT-LIGAND-PDBQT: HETATM   64  CB  0Q4 A 125       7.933  15.891  35.779  1.00 21.80     0.044 C 
INPUT-LIGAND-PDBQT: BRANCH  64  65
INPUT-LIGAND-PDBQT: HETATM   65  CG  0Q4 A 125       6.774  15.395  36.710  1.00 26.69     0.023 C 
INPUT-LIGAND-PDBQT: BRANCH  65  66
INPUT-LIGAND-PDBQT: HETATM   66  CD  0Q4 A 125       6.949  13.961  37.323  1.00 29.76     0.138 C 
INPUT-LIGAND-PDBQT: BRANCH  66  67
INPUT-LIGAND-PDBQT: HETATM   67  NE  0Q4 A 125       7.449  13.937  38.704  1.00 32.26    -0.227 N 
INPUT-LIGAND-PDBQT: HETATM   68  CZ  0Q4 A 125       6.771  14.379  39.766  1.00 34.72     0.665 C 
INPUT-LIGAND-PDBQT: HETATM   69  NH1 0Q4 A 125       5.552  14.865  39.602  1.00 35.07    -0.235 N 
INPUT-LIGAND-PDBQT: HETATM   70  NH2 0Q4 A 125       7.354  14.451  40.972  1.00 35.86    -0.235 N 
INPUT-LIGAND-PDBQT: HETATM   71 HH11 0Q4 A 125       5.142  14.896  38.692  1.00 15.00     0.174 HD
INPUT-LIGAND-PDBQT: HETATM   72 HH12 0Q4 A 125       5.035  15.199  40.392  1.00 15.00     0.174 HD
INPUT-LIGAND-PDBQT: HETATM   73 HH21 0Q4 A 125       8.305  14.172  41.093  1.00 15.00     0.174 HD
INPUT-LIGAND-PDBQT: HETATM   74 HH22 0Q4 A 125       6.826  14.788  41.754  1.00 15.00     0.174 HD
INPUT-LIGAND-PDBQT: HETATM   75  HE  0Q4 A 125       8.347  13.573  38.870  1.00 15.00     0.177 HD
INPUT-LIGAND-PDBQT: ENDBRANCH  66  67
INPUT-LIGAND-PDBQT: ENDBRANCH  65  66
INPUT-LIGAND-PDBQT: ENDBRANCH  64  65
INPUT-LIGAND-PDBQT: ENDBRANCH  59  64
INPUT-LIGAND-PDBQT: ENDBRANCH  56  59
INPUT-LIGAND-PDBQT: ENDBRANCH  51  55
INPUT-LIGAND-PDBQT: ENDBRANCH  48  51
INPUT-LIGAND-PDBQT: ENDBRANCH  42  47
INPUT-LIGAND-PDBQT: ENDBRANCH  40  42
INPUT-LIGAND-PDBQT: ENDBRANCH   1  39
INPUT-LIGAND-PDBQT: TORSDOF 29
________________________________________________________________________________

Total charge on ligand                               =	+1.006 e
REMARK  29 active torsions:
REMARK  status: ('A' for Active; 'I' for Inactive)
REMARK    1  A    between atoms: N_1  and  CA_2 
REMARK    2  A    between atoms: CA_2  and  C_9 
REMARK    3  A    between atoms: CA_2  and  CB_11 
REMARK    4  A    between atoms: CA1_3  and  CB1_12 
REMARK    5  A    between atoms: CA1_3  and  C1_42 
REMARK    6  A    between atoms: CA1_3  and  N1_43 
REMARK    7  A    between atoms: CA2_4  and  CB2_13 
REMARK    8  A    between atoms: CA2_4  and  C2_45 
REMARK    9  A    between atoms: CA2_4  and  N2_46 
REMARK   10  A    between atoms: CA3_5  and  CB3_14 
REMARK   11  A    between atoms: CA3_5  and  C3_48 
REMARK   12  A    between atoms: CA3_5  and  N3_49 
REMARK   13  A    between atoms: CA4_6  and  CB4_15 
REMARK   14  A    between atoms: CA4_6  and  C4_51 
REMARK   15  A    between atoms: CA4_6  and  N4_52 
REMARK   16  A    between atoms: CA5_7  and  C5_54 
REMARK   17  A    between atoms: CA5_7  and  N5_55 
REMARK   18  A    between atoms: CA6_8  and  CB6_17 
REMARK   19  A    between atoms: CA6_8  and  C6_57 
REMARK   20  A    between atoms: CA6_8  and  N6_58 
REMARK       I    between atoms: C_9  and  N1_43 
REMARK   21  A    between atoms: CB_11  and  CG_18 
REMARK   22  A    between atoms: CB2_13  and  CG3_21 
REMARK   23  A    between atoms: CB3_14  and  CG4_22 
REMARK   24  A    between atoms: CB4_15  and  CG5_23 
REMARK   25  A    between atoms: CB6_17  and  CG6_24 
REMARK   26  A    between atoms: CG_18  and  CD_25 
REMARK   27  A    between atoms: CG5_23  and  CD3_30 
REMARK   28  A    between atoms: CG6_24  and  CD4_31 
REMARK   29  A    between atoms: CD_25  and  NE_35 
REMARK       I    between atoms: NE_35  and  CZ_38 
REMARK       I    between atoms: CZ_38  and  NH1_40 
REMARK       I    between atoms: C1_42  and  N2_46 
REMARK       I    between atoms: C3_48  and  N4_52 
REMARK       I    between atoms: C4_51  and  N5_55 
REMARK       I    between atoms: C5_54  and  N6_58 
REMARK       I    between atoms: C6_57  and  N7_59 


Number of Rotatable Bonds in Small Molecule =	29 torsions
Number of atoms in ligand:  75

Number of non-hydrogen atoms in ligand:  59

Number of vibrational degrees of freedom of ligand:  219


Number of torsional degrees of freedom = 29
Estimated loss of torsional free energy upon binding = +8.6507 kcal/mol


DPF> about -1.190 15.842 33.892            # small molecule center

Small molecule center of rotation =	(-1.190, +15.842, +33.892)

DPF> tran0 random                         # initial coordinates/A or random

Initial translation =			(-6.128, 11.920, 30.911) Angstroms
DPF> quaternion0 random                   # initial orientation

Each run will begin with a new, random initial orientation.
Initial quaternion,  (x,y,z,w) =	( 0.865, 0.300, 0.280, -0.290 ),
DPF> dihe0 random                         # initial dihedrals (relative) or random

DPF> torsdof 29                            # torsional degrees of freedom

Number of torsional degrees of freedom = 29
Free energy coefficient for torsional degrees of freedom = 0.2983, the factory default value.

Estimated loss of torsional free energy upon binding = +8.6507 kcal/mol

DPF> rmstol 2.0                           # cluster_tolerance/A

Maximum RMS tolerance for conformational cluster analysis = 2.00 Angstroms
DPF> extnrg 1000.0                        # external grid energy

External grid energy (beyond grid map walls) = 1000.00

DPF> e0max 0.0 10000                      # max initial energy; max number of retries

Using user-specified maximum number of retries for simanneal initialization, 10000 retries.
If the simanneal initial energy is greater than e0max, 0.000,
then a new, random initial state will be created.

DPF> ga_pop_size 150                      # number of individuals in population

A population of 150 individuals will be used
DPF> ga_num_evals 2500000                 # maximum number of energy evaluations

There will be at most 2500000 function evaluations used.
DPF> ga_num_generations 27000             # maximum number of generations

The GA will run for at most 27000 generations.
DPF> ga_elitism 1                         # number of top individuals to survive to next generation

The 1 best will be preserved each GA generation.
DPF> ga_mutation_rate 0.02                # rate of gene mutation

The mutation rate is 0.020000.
DPF> ga_crossover_rate 0.8                # rate of crossover

The crossover rate is 0.800000.
DPF> ga_window_size 10                    # 

The GA's selection window is 10 generations.
DPF> ga_cauchy_alpha 0.0                  # Alpha parameter of Cauchy distribution

The alpha parameter (for the Cauchy distribution) is being set to 0.000000.
DPF> ga_cauchy_beta 1.0                   # Beta parameter Cauchy distribution

The beta parameter (for the Cauchy distribution) is being set to 1.000000.
DPF> set_ga                               # set the above parameters for GA or LGA

DPF> sw_max_its 300                       # iterations of Solis & Wets local search

Solis & Wets algorithms will perform at most 300 iterations.
DPF> sw_max_succ 4                        # consecutive successes before changing rho

Solis & Wets algorithms expand rho every 4 in a row successes.
DPF> sw_max_fail 4                        # consecutive failures before changing rho

Solis & Wets algorithms contract rho every 4 in a row failures.
DPF> sw_rho 1.0                           # size of local search space to sample

rho is set to 1.000000.
DPF> sw_lb_rho 0.01                       # lower bound on rho

rho will never get smaller than 0.010000.
DPF> ls_search_freq 0.06                  # probability of performing local search on individual

Local search will be performed with frequency 0.060000.
DPF> set_psw1                             # set the above pseudo-Solis & Wets parameters

Creating a new Local Search object using the pseudo-Solis-Wets algorithm (pSW1) with the current settings.

DPF> unbound_model bound                  # state of unbound ligand

DPF> ga_run 10                            # do this many hybrid GA-LS runs

centering ligand on specified point: -1.190 15.842 33.892
Furthest true ligand atom from "about" center is 14.993 Angstroms (maxrad).
Number of requested GA dockings = 10 runs
Unbound model to be used is 'same as bound' [AutoDock 4.2 default].

	BEGINNING GENETIC ALGORITHM DOCKING 1 of 10
Run: 1 Seed: 1887118148 2146257023 [ Run 1 of 10 GA/GALS ]
Beginning LAMARCKIAN GENETIC ALGORITHM (LGA), with a maximum of 2500000 energy evaluations.

Final-Value: -5.660


	FINAL GENETIC ALGORITHM DOCKED STATE
	_______________________________________________


Detailed state:  trans -4.508 16.496 34.470 quatxyzw 0.987536 0.054253 0.123804 -0.080630 center -1.190 15.842 33.892 ntor 29 154.1089 -172.7707 -29.6122 -164.4925 -160.8048 25.4338 15.8476 -152.7953 -18.1373 62.3055 128.0699 144.2095 -12.1332 -150.4851 135.8845 -180.0000 -138.6244 29.9885 -177.2770 53.9557 180.0000 82.1527 -179.8697 -4.8333 91.3719 -3.5800 -57.4721 20.6068 179.0303
State:	 -4.508  16.496  34.470   0.991  0.054  0.124 -170.750    154.11 -172.77  -29.61 -164.49 -160.80   25.43   15.85 -152.80  -18.14   62.31  128.07  144.21  -12.13 -150.49  135.88 -180.00 -138.62   29.99 -177.28   53.96  180.00   82.15 -179.87   -4.83   91.37   -3.58  -57.47   20.61  179.03

DOCKED: MODEL        1
DOCKED: USER    Run = 1
DOCKED: USER    DPF = dock.dpf
DOCKED: USER  
DOCKED: USER    Estimated Free Energy of Binding    =   +6.59 kcal/mol  [=(1)+(2)+(3)-(4)]
DOCKED: USER    
DOCKED: USER    (1) Final Intermolecular Energy     =   -2.07 kcal/mol
DOCKED: USER        vdW + Hbond + desolv Energy     =   -1.25 kcal/mol
DOCKED: USER        Electrostatic Energy            =   -0.82 kcal/mol
DOCKED: USER    (2) Final Total Internal Energy     =   -3.59 kcal/mol
DOCKED: USER    (3) Torsional Free Energy           =   +8.65 kcal/mol
DOCKED: USER    (4) Unbound System's Energy  [=(2)] =   -3.59 kcal/mol
DOCKED: USER    
DOCKED: USER    
DOCKED: USER    NEWDPF move lig1bai.pdbqt
DOCKED: USER    NEWDPF about -1.190000 15.842000 33.892000
DOCKED: USER    NEWDPF tran0 -4.508361 16.496304 34.469828
DOCKED: USER    NEWDPF quaternion0 0.987536 0.054253 0.123804 -0.080630
DOCKED: USER    NEWDPF axisangle0 0.990762 0.054430 0.124209 -170.750424
DOCKED: USER    NEWDPF quat0 0.990762 0.054430 0.124209 -170.750424
DOCKED: USER    NEWDPF dihe0 154.11 -172.77 -29.61 -164.49 -160.80 25.43 15.85 -152.80 -18.14 62.31 128.07 144.21 -12.13 -150.49 135.88 -180.00 -138.62 29.99 -177.28 53.96 180.00 82.15 -179.87 -4.83 91.37 -3.58 -57.47 20.61 179.03 
DOCKED: USER  keepresnum = 1 
DOCKED: USER  
DOCKED: REMARK  29 active torsions:
DOCKED: REMARK  status: ('A' for Active; 'I' for Inactive)
DOCKED: REMARK    1  A    between atoms: N_1  and  CA_2 
DOCKED: REMARK    2  A    between atoms: CA_2  and  C_9 
DOCKED: REMARK    3  A    between atoms: CA_2  and  CB_11 
DOCKED: REMARK    4  A    between atoms: CA1_3  and  CB1_12 
DOCKED: REMARK    5  A    between atoms: CA1_3  and  C1_42 
DOCKED: REMARK    6  A    between atoms: CA1_3  and  N1_43 
DOCKED: REMARK    7  A    between atoms: CA2_4  and  CB2_13 
DOCKED: REMARK    8  A    between atoms: CA2_4  and  C2_45 
DOCKED: REMARK    9  A    between atoms: CA2_4  and  N2_46 
DOCKED: REMARK   10  A    between atoms: CA3_5  and  CB3_14 
DOCKED: REMARK   11  A    between atoms: CA3_5  and  C3_48 
DOCKED: REMARK   12  A    between atoms: CA3_5  and  N3_49 
DOCKED: REMARK   13  A    between atoms: CA4_6  and  CB4_15 
DOCKED: REMARK   14  A    between atoms: CA4_6  and  C4_51 
DOCKED: REMARK   15  A    between atoms: CA4_6  and  N4_52 
DOCKED: REMARK   16  A    between atoms: CA5_7  and  C5_54 
DOCKED: REMARK   17  A    between atoms: CA5_7  and  N5_55 
DOCKED: REMARK   18  A    between atoms: CA6_8  and  CB6_17 
DOCKED: REMARK   19  A    between atoms: CA6_8  and  C6_57 
DOCKED: REMARK   20  A    between atoms: CA6_8  and  N6_58 
DOCKED: REMARK       I    between atoms: C_9  and  N1_43 
DOCKED: REMARK   21  A    between atoms: CB_11  and  CG_18 
DOCKED: REMARK   22  A    between atoms: CB2_13  and  CG3_21 
DOCKED: REMARK   23  A    between atoms: CB3_14  and  CG4_22 
DOCKED: REMARK   24  A    between atoms: CB4_15  and  CG5_23 
DOCKED: REMARK   25  A    between atoms: CB6_17  and  CG6_24 
DOCKED: REMARK   26  A    between atoms: CG_18  and  CD_25 
DOCKED: REMARK   27  A    between atoms: CG5_23  and  CD3_30 
DOCKED: REMARK   28  A    between atoms: CG6_24  and  CD4_31 
DOCKED: REMARK   29  A    between atoms: CD_25  and  NE_35 
DOCKED: REMARK       I    between atoms: NE_35  and  CZ_38 
DOCKED: REMARK       I    between atoms: CZ_38  and  NH1_40 
DOCKED: REMARK       I    between atoms: C1_42  and  N2_46 
DOCKED: REMARK       I    between atoms: C3_48  and  N4_52 
DOCKED: REMARK       I    between atoms: C4_51  and  N5_55 
DOCKED: REMARK       I    between atoms: C5_54  and  N6_58 
DOCKED: REMARK       I    between atoms: C6_57  and  N7_59 
DOCKED: USER                              x       y       z     vdW  Elec       q    Type
DOCKED: USER                           _______ _______ _______ _____ _____    ______ ____
DOCKED: ROOT
DOCKED: ATOM      1  CA3 0Q4 A 125      -4.913  15.024  36.262 -0.29 -0.10    +0.177 C 
DOCKED: ENDROOT
DOCKED: BRANCH   1   2
DOCKED: ATOM      2  CB3 0Q4 A 125      -4.949  15.370  37.781 -0.37 -0.04    +0.073 C 
DOCKED: BRANCH   2   3
DOCKED: ATOM      3  CG4 0Q4 A 125      -6.227  15.928  38.270 -0.33 +0.03    -0.056 A 
DOCKED: ATOM      4  CD1 0Q4 A 125      -7.373  15.146  38.309 +0.10 -0.00    +0.007 A 
DOCKED: ATOM      5  CE1 0Q4 A 125      -8.589  15.658  38.818 +0.33 -0.00    +0.001 A 
DOCKED: ATOM      6  CZ1 0Q4 A 125      -8.657  16.975  39.286 +1.40 -0.00    +0.000 A 
DOCKED: ATOM      7  CE2 0Q4 A 125      -7.516  17.774  39.243 +1.83 -0.00    +0.001 A 
DOCKED: ATOM      8  CD2 0Q4 A 125      -6.296  17.240  38.730 +0.21 -0.00    +0.007 A 
DOCKED: ENDBRANCH   2   3
DOCKED: ENDBRANCH   1   2
DOCKED: BRANCH   1   9
DOCKED: ATOM      9  C3  0Q4 A 125      -5.941  15.766  35.364 -0.30 -0.18    +0.241 C 
DOCKED: ATOM     10  O2  0Q4 A 125      -6.503  16.784  35.775 -0.34 +0.22    -0.271 OA
DOCKED: ATOM     11  N4  0Q4 A 125      -6.084  15.315  34.117 -0.14 +0.29    -0.346 N 
DOCKED: ATOM     12  H4  0Q4 A 125      -5.620  14.496  33.836 -0.37 -0.16    +0.163 HD
DOCKED: BRANCH  11  13
DOCKED: ATOM     13  CA4 0Q4 A 125      -6.956  15.957  33.130 -0.26 -0.17    +0.177 C 
DOCKED: BRANCH  13  14
DOCKED: ATOM     14  CB4 0Q4 A 125      -7.119  15.017  31.903 -0.20 -0.04    +0.045 C 
DOCKED: BRANCH  14  15
DOCKED: ATOM     15  CG5 0Q4 A 125      -6.539  15.487  30.583 -0.21 -0.09    +0.116 C 
DOCKED: BRANCH  15  16
DOCKED: ATOM     16  CD3 0Q4 A 125      -7.180  16.785  30.070 -0.14 -0.16    +0.172 C 
DOCKED: ATOM     17  OE1 0Q4 A 125      -6.453  17.633  29.520 +0.05 +0.54    -0.648 OA
DOCKED: ATOM     18  OE2 0Q4 A 125      -8.418  16.973  30.204 +0.05 +0.89    -0.648 OA
DOCKED: ENDBRANCH  15  16
DOCKED: ENDBRANCH  14  15
DOCKED: ENDBRANCH  13  14
DOCKED: BRANCH  13  19
DOCKED: ATOM     19  C4  0Q4 A 125      -8.337  16.382  33.639 -0.26 -0.32    +0.241 C 
DOCKED: ATOM     20  O3  0Q4 A 125      -8.519  16.751  34.801 +0.32 +0.52    -0.271 OA
DOCKED: ATOM     21  N5  0Q4 A 125      -9.339  16.174  32.802 -0.11 +0.51    -0.346 N 
DOCKED: ATOM     22  H5  0Q4 A 125      -9.177  15.772  31.920 +0.07 -0.19    +0.163 HD
DOCKED: BRANCH  21  23
DOCKED: ATOM     23  CA5 0Q4 A 125     -10.694  16.538  33.160 +0.15 -0.34    +0.172 C 
DOCKED: ATOM     24  CB5 0Q4 A 125     -11.415  16.994  31.906 +0.67 -0.08    +0.042 C 
DOCKED: BRANCH  23  25
DOCKED: ATOM     25  C5  0Q4 A 125     -11.542  15.454  33.871 -0.00 -0.36    +0.240 C 
DOCKED: ATOM     26  O4  0Q4 A 125     -12.427  15.745  34.678 -0.12 +0.44    -0.271 OA
DOCKED: ATOM     27  N6  0Q4 A 125     -11.198  14.203  33.583 -0.11 +0.31    -0.346 N 
DOCKED: ATOM     28  H6  0Q4 A 125     -10.460  14.063  32.965 +0.08 -0.13    +0.163 HD
DOCKED: BRANCH  27  29
DOCKED: ATOM     29  CA6 0Q4 A 125     -11.803  13.029  34.199 -0.33 -0.12    +0.176 C 
DOCKED: BRANCH  29  30
DOCKED: ATOM     30  CB6 0Q4 A 125     -12.027  13.316  35.706 -0.40 -0.03    +0.035 C 
DOCKED: BRANCH  30  31
DOCKED: ATOM     31  CG6 0Q4 A 125     -12.939  12.322  36.507 -0.55 -0.00    +0.002 C 
DOCKED: BRANCH  31  32
DOCKED: ATOM     32  CD4 0Q4 A 125     -14.215  12.982  37.163 -0.56 +0.00    -0.004 C 
DOCKED: ATOM     33  CE  0Q4 A 125     -13.880  14.330  37.768 -0.48 -0.00    +0.005 C 
DOCKED: ENDBRANCH  31  32
DOCKED: ENDBRANCH  30  31
DOCKED: ENDBRANCH  29  30
DOCKED: BRANCH  29  34
DOCKED: ATOM     34  C6  0Q4 A 125     -13.155  12.828  33.495 -0.11 -0.15    +0.238 C 
DOCKED: ATOM     35  O5  0Q4 A 125     -14.232  13.167  34.067 -0.08 +0.14    -0.271 OA
DOCKED: ATOM     36  N7  0Q4 A 125     -13.117  12.288  32.361 +0.19 +0.24    -0.368 N 
DOCKED: ATOM     37  H72 0Q4 A 125     -12.250  12.014  31.899 +0.03 -0.06    +0.159 HD
DOCKED: ATOM     38  H71 0Q4 A 125     -14.014  12.154  31.895 -0.47 -0.15    +0.159 HD
DOCKED: ENDBRANCH  29  34
DOCKED: ENDBRANCH  27  29
DOCKED: ENDBRANCH  23  25
DOCKED: ENDBRANCH  21  23
DOCKED: ENDBRANCH  13  19
DOCKED: ENDBRANCH  11  13
DOCKED: ENDBRANCH   1   9
DOCKED: BRANCH   1  39
DOCKED: ATOM     39  N3  0Q4 A 125      -3.594  15.424  35.759 +1.74 +0.23    -0.387 N 
DOCKED: ATOM     40  C2  0Q4 A 125      -2.768  16.215  36.422 +0.04 -0.05    +0.081 C 
DOCKED: ATOM     41  H3  0Q4 A 125      -3.300  15.074  34.896 +0.44 -0.09    +0.159 HD
DOCKED: BRANCH  40  42
DOCKED: ATOM     42  CA2 0Q4 A 125      -1.426  16.478  35.753 -0.06 -0.10    +0.123 C 
DOCKED: BRANCH  42  43
DOCKED: ATOM     43  CB2 0Q4 A 125      -0.431  17.190  36.701 -0.42 -0.03    +0.034 C 
DOCKED: BRANCH  43  44
DOCKED: ATOM     44  CG3 0Q4 A 125      -0.570  16.823  38.206 +0.73 +0.01    -0.020 C 
DOCKED: ATOM     45  CD1 0Q4 A 125      -1.431  15.582  38.442 +0.27 -0.00    +0.009 C 
DOCKED: ATOM     46  CD2 0Q4 A 125       0.803  16.620  38.819 -0.39 -0.00    +0.009 C 
DOCKED: ENDBRANCH  43  44
DOCKED: ENDBRANCH  42  43
DOCKED: BRANCH  42  47
DOCKED: ATOM     47  N2  0Q4 A 125      -1.463  17.168  34.477 -0.12 +0.40    -0.350 N 
DOCKED: ATOM     48  C1  0Q4 A 125      -1.397  16.501  33.339 -0.18 -0.21    +0.241 C 
DOCKED: ATOM     49  O1  0Q4 A 125      -1.464  15.279  33.317 -0.12 +0.15    -0.271 OA
DOCKED: ATOM     50  HN2 0Q4 A 125      -1.498  18.151  34.467 +0.02 -0.29    +0.163 HD
DOCKED: BRANCH  48  51
DOCKED: ATOM     51  CA1 0Q4 A 125      -1.371  17.359  32.047 -0.25 -0.21    +0.180 C 
DOCKED: BRANCH  51  52
DOCKED: ATOM     52  CB1 0Q4 A 125      -2.328  16.806  30.870 -0.31 -0.01    +0.009 C 
DOCKED: ATOM     53  CG1 0Q4 A 125      -1.520  16.277  29.682 -0.38 -0.01    +0.012 C 
DOCKED: ATOM     54  CG2 0Q4 A 125      -3.214  15.654  31.385 -0.33 -0.01    +0.012 C 
DOCKED: ENDBRANCH  51  52
DOCKED: BRANCH  51  55
DOCKED: ATOM     55  N1  0Q4 A 125      -0.010  17.552  31.543 -0.12 +0.48    -0.346 N 
DOCKED: ATOM     56  C   0Q4 A 125       0.844  16.538  31.325 -0.17 -0.23    +0.249 C 
DOCKED: ATOM     57  O   0Q4 A 125       0.551  15.349  31.550 +0.46 +0.15    -0.271 OA
DOCKED: ATOM     58  H1  0Q4 A 125       0.237  18.480  31.344 -0.26 -0.37    +0.163 HD
DOCKED: BRANCH  56  59
DOCKED: ATOM     59  CA  0Q4 A 125       2.281  16.919  30.844 -0.23 -0.26    +0.274 C 
DOCKED: BRANCH  59  60
DOCKED: ATOM     60  N   0Q4 A 125       2.173  17.830  29.663 -0.21 +0.09    -0.067 N 
DOCKED: ATOM     61  H   0Q4 A 125       1.898  17.314  28.816 +0.56 -0.25    +0.275 HD
DOCKED: ATOM     62  H2  0Q4 A 125       1.444  18.542  29.921 -0.31 -0.68    +0.275 HD
DOCKED: ATOM     63  HN3 0Q4 A 125       3.075  18.299  29.487 +0.12 -0.33    +0.275 HD
DOCKED: ENDBRANCH  59  60
DOCKED: BRANCH  59  64
DOCKED: ATOM     64  CB  0Q4 A 125       3.112  17.609  31.934 -0.19 -0.04    +0.044 C 
DOCKED: BRANCH  64  65
DOCKED: ATOM     65  CG  0Q4 A 125       4.091  16.704  32.758 -0.34 -0.02    +0.023 C 
DOCKED: BRANCH  65  66
DOCKED: ATOM     66  CD  0Q4 A 125       3.529  15.307  33.199 -0.21 -0.08    +0.138 C 
DOCKED: BRANCH  66  67
DOCKED: ATOM     67  NE  0Q4 A 125       2.678  15.334  34.397 -0.15 +0.10    -0.227 N 
DOCKED: ATOM     68  CZ  0Q4 A 125       3.132  15.322  35.652 +0.09 -0.25    +0.665 C 
DOCKED: ATOM     69  NH1 0Q4 A 125       4.436  15.302  35.872 -0.15 +0.09    -0.235 N 
DOCKED: ATOM     70  NH2 0Q4 A 125       2.286  15.206  36.687 -0.23 +0.07    -0.235 N 
DOCKED: ATOM     71 HH11 0Q4 A 125       5.074  15.300  35.104 +0.04 -0.09    +0.174 HD
DOCKED: ATOM     72 HH12 0Q4 A 125       4.786  15.293  36.810 +0.09 -0.05    +0.174 HD
DOCKED: ATOM     73 HH21 0Q4 A 125       1.303  15.129  36.532 +0.10 -0.05    +0.174 HD
DOCKED: ATOM     74 HH22 0Q4 A 125       2.650  15.198  37.621 +0.10 -0.05    +0.174 HD
DOCKED: ATOM     75  HE  0Q4 A 125       1.703  15.360  34.276 +0.09 -0.08    +0.177 HD
DOCKED: ENDBRANCH  66  67
DOCKED: ENDBRANCH  65  66
DOCKED: ENDBRANCH  64  65
DOCKED: ENDBRANCH  59  64
DOCKED: ENDBRANCH  56  59
DOCKED: ENDBRANCH  51  55
DOCKED: ENDBRANCH  48  51
DOCKED: ENDBRANCH  42  47
DOCKED: ENDBRANCH  40  42
DOCKED: ENDBRANCH   1  39
DOCKED: TORSDOF 29
DOCKED: TER
DOCKED: ENDMDL
________________________________________________________________________________


	BEGINNING GENETIC ALGORITHM DOCKING 2 of 10
Run: 2 Seed: 823246370 38260491 [ Run 2 of 10 GA/GALS ]
Beginning LAMARCKIAN GENETIC ALGORITHM (LGA), with a maximum of 2500000 energy evaluations.

Final-Value: 2.738


	FINAL GENETIC ALGORITHM DOCKED STATE
	_______________________________________________


Detailed state:  trans -0.107 16.585 34.368 quatxyzw -0.005268 0.933509 0.299623 0.196873 center -1.190 15.842 33.892 ntor 29 -19.7295 -179.9581 88.8212 100.5863 -52.5050 -147.0700 -179.9680 24.4426 -179.6066 -170.0247 -91.7536 -179.1025 2.0105 180.0000 4.3483 11.6252 -50.9540 -104.1677 130.7906 154.2882 -149.1632 140.4677 -41.4385 -102.4989 177.4578 -43.6197 153.8989 12.6389 175.0171
State:	 -0.107  16.585  34.368  -0.005  0.952  0.306 157.292    -19.73 -179.96   88.82  100.59  -52.51 -147.07 -179.97   24.44 -179.61 -170.02  -91.75 -179.10    2.01  180.00    4.35   11.63  -50.95 -104.17  130.79  154.29 -149.16  140.47  -41.44 -102.50  177.46  -43.62  153.90   12.64  175.02

DOCKED: MODEL        2
DOCKED: USER    Run = 2
DOCKED: USER    DPF = dock.dpf
DOCKED: USER  
DOCKED: USER    Estimated Free Energy of Binding    =   +9.80 kcal/mol  [=(1)+(2)+(3)-(4)]
DOCKED: USER    
DOCKED: USER    (1) Final Intermolecular Energy     =   +1.15 kcal/mol
DOCKED: USER        vdW + Hbond + desolv Energy     =   +0.40 kcal/mol
DOCKED: USER        Electrostatic Energy            =   +0.75 kcal/mol
DOCKED: USER    (2) Final Total Internal Energy     =   +1.59 kcal/mol
DOCKED: USER    (3) Torsional Free Energy           =   +8.65 kcal/mol
DOCKED: USER    (4) Unbound System's Energy  [=(2)] =   +1.59 kcal/mol
DOCKED: USER    
DOCKED: USER    
DOCKED: USER    NEWDPF move lig1bai.pdbqt
DOCKED: USER    NEWDPF about -1.190000 15.842000 33.892000
DOCKED: USER    NEWDPF tran0 -0.106905 16.584897 34.368138
DOCKED: USER    NEWDPF quaternion0 -0.005268 0.933509 0.299623 0.196873
DOCKED: USER    NEWDPF axisangle0 -0.005373 0.952143 0.305604 157.291695
DOCKED: USER    NEWDPF quat0 -0.005373 0.952143 0.305604 157.291695
DOCKED: USER    NEWDPF dihe0 -19.73 -179.96 88.82 100.59 -52.51 -147.07 -179.97 24.44 -179.61 -170.02 -91.75 -179.10 2.01 180.00 4.35 11.63 -50.95 -104.17 130.79 154.29 -149.16 140.47 -41.44 -102.50 177.46 -43.62 153.90 12.64 175.02 
DOCKED: USER  keepresnum = 1 
DOCKED: USER  
DOCKED: REMARK  29 active torsions:
DOCKED: REMARK  status: ('A' for Active; 'I' for Inactive)
DOCKED: REMARK    1  A    between atoms: N_1  and  CA_2 
DOCKED: REMARK    2  A    between atoms: CA_2  and  C_9 
DOCKED: REMARK    3  A    between atoms: CA_2  and  CB_11 
DOCKED: REMARK    4  A    between atoms: CA1_3  and  CB1_12 
DOCKED: REMARK    5  A    between atoms: CA1_3  and  C1_42 
DOCKED: REMARK    6  A    between atoms: CA1_3  and  N1_43 
DOCKED: REMARK    7  A    between atoms: CA2_4  and  CB2_13 
DOCKED: REMARK    8  A    between atoms: CA2_4  and  C2_45 
DOCKED: REMARK    9  A    between atoms: CA2_4  and  N2_46 
DOCKED: REMARK   10  A    between atoms: CA3_5  and  CB3_14 
DOCKED: REMARK   11  A    between atoms: CA3_5  and  C3_48 
DOCKED: REMARK   12  A    between atoms: CA3_5  and  N3_49 
DOCKED: REMARK   13  A    between atoms: CA4_6  and  CB4_15 
DOCKED: REMARK   14  A    between atoms: CA4_6  and  C4_51 
DOCKED: REMARK   15  A    between atoms: CA4_6  and  N4_52 
DOCKED: REMARK   16  A    between atoms: CA5_7  and  C5_54 
DOCKED: REMARK   17  A    between atoms: CA5_7  and  N5_55 
DOCKED: REMARK   18  A    between atoms: CA6_8  and  CB6_17 
DOCKED: REMARK   19  A    between atoms: CA6_8  and  C6_57 
DOCKED: REMARK   20  A    between atoms: CA6_8  and  N6_58 
DOCKED: REMARK       I    between atoms: C_9  and  N1_43 
DOCKED: REMARK   21  A    between atoms: CB_11  and  CG_18 
DOCKED: REMARK   22  A    between atoms: CB2_13  and  CG3_21 
DOCKED: REMARK   23  A    between atoms: CB3_14  and  CG4_22 
DOCKED: REMARK   24  A    between atoms: CB4_15  and  CG5_23 
DOCKED: REMARK   25  A    between atoms: CB6_17  and  CG6_24 
DOCKED: REMARK   26  A    between atoms: CG_18  and  CD_25 
DOCKED: REMARK   27  A    between atoms: CG5_23  and  CD3_30 
DOCKED: REMARK   28  A    between atoms: CG6_24  and  CD4_31 
DOCKED: REMARK   29  A    between atoms: CD_25  and  NE_35 
DOCKED: REMARK       I    between atoms: NE_35  and  CZ_38 
DOCKED: REMARK       I    between atoms: CZ_38  and  NH1_40 
DOCKED: REMARK       I    between atoms: C1_42  and  N2_46 
DOCKED: REMARK       I    between atoms: C3_48  and  N4_52 
DOCKED: REMARK       I    between atoms: C4_51  and  N5_55 
DOCKED: REMARK       I    between atoms: C5_54  and  N6_58 
DOCKED: REMARK       I    between atoms: C6_57  and  N7_59 
DOCKED: USER                              x       y       z     vdW  Elec       q    Type
DOCKED: USER                           _______ _______ _______ _____ _____    ______ ____
DOCKED: ROOT
DOCKED: ATOM      1  CA3 0Q4 A 125       0.815  17.122  36.467 -0.28 -0.16    +0.177 C 
DOCKED: ENDROOT
DOCKED: BRANCH   1   2
DOCKED: ATOM      2  CB3 0Q4 A 125       1.028  16.166  37.679 -0.44 -0.03    +0.073 C 
DOCKED: BRANCH   2   3
DOCKED: ATOM      3  CG4 0Q4 A 125       2.384  15.590  37.797 -0.36 +0.02    -0.056 A 
DOCKED: ATOM      4  CD1 0Q4 A 125       3.276  16.066  38.747 -0.36 -0.00    +0.007 A 
DOCKED: ATOM      5  CE1 0Q4 A 125       4.559  15.491  38.897 -0.27 -0.00    +0.001 A 
DOCKED: ATOM      6  CZ1 0Q4 A 125       4.954  14.428  38.077 -0.23 -0.00    +0.000 A 
DOCKED: ATOM      7  CE2 0Q4 A 125       4.071  13.946  37.112 -0.30 -0.00    +0.001 A 
DOCKED: ATOM      8  CD2 0Q4 A 125       2.778  14.537  36.977 -0.31 -0.00    +0.007 A 
DOCKED: ENDBRANCH   2   3
DOCKED: ENDBRANCH   1   2
DOCKED: BRANCH   1   9
DOCKED: ATOM      9  C3  0Q4 A 125       1.550  16.739  35.153 -0.19 -0.20    +0.241 C 
DOCKED: ATOM     10  O2  0Q4 A 125       2.201  17.586  34.537 -0.20 +0.29    -0.271 OA
DOCKED: ATOM     11  N4  0Q4 A 125       1.528  15.451  34.806 -0.13 +0.15    -0.346 N 
DOCKED: ATOM     12  H4  0Q4 A 125       0.990  14.814  35.324 +0.08 -0.03    +0.163 HD
DOCKED: BRANCH  11  13
DOCKED: ATOM     13  CA4 0Q4 A 125       2.240  14.926  33.638 +0.15 -0.07    +0.177 C 
DOCKED: BRANCH  13  14
DOCKED: ATOM     14  CB4 0Q4 A 125       1.383  15.172  32.364 +1.04 -0.02    +0.045 C 
DOCKED: BRANCH  14  15
DOCKED: ATOM     15  CG5 0Q4 A 125       0.213  16.130  32.486 -0.27 -0.09    +0.116 C 
DOCKED: BRANCH  15  16
DOCKED: ATOM     16  CD3 0Q4 A 125       0.251  17.264  31.450 -0.26 -0.21    +0.172 C 
DOCKED: ATOM     17  OE1 0Q4 A 125      -0.794  17.546  30.835 +0.02 +0.80    -0.648 OA
DOCKED: ATOM     18  OE2 0Q4 A 125       1.323  17.891  31.239 +0.05 +1.10    -0.648 OA
DOCKED: ENDBRANCH  15  16
DOCKED: ENDBRANCH  14  15
DOCKED: ENDBRANCH  13  14
DOCKED: BRANCH  13  19
DOCKED: ATOM     19  C4  0Q4 A 125       3.654  15.474  33.419 -0.17 -0.15    +0.241 C 
DOCKED: ATOM     20  O3  0Q4 A 125       4.648  14.927  33.901 +0.81 +0.21    -0.271 OA
DOCKED: ATOM     21  N5  0Q4 A 125       3.721  16.651  32.820 -0.12 +0.25    -0.346 N 
DOCKED: ATOM     22  H5  0Q4 A 125       2.900  17.118  32.546 +0.09 -0.15    +0.163 HD
DOCKED: BRANCH  21  23
DOCKED: ATOM     23  CA5 0Q4 A 125       4.997  17.275  32.548 -0.23 -0.11    +0.172 C 
DOCKED: ATOM     24  CB5 0Q4 A 125       5.105  18.533  33.389 +4.11 -0.03    +0.042 C 
DOCKED: BRANCH  23  25
DOCKED: ATOM     25  C5  0Q4 A 125       6.260  16.405  32.767 -0.21 -0.14    +0.240 C 
DOCKED: ATOM     26  O4  0Q4 A 125       6.823  15.826  31.835 -0.22 +0.19    -0.271 OA
DOCKED: ATOM     27  N6  0Q4 A 125       6.643  16.292  34.035 -0.06 +0.18    -0.346 N 
DOCKED: ATOM     28  H6  0Q4 A 125       6.118  16.752  34.712 +0.08 -0.07    +0.163 HD
DOCKED: BRANCH  27  29
DOCKED: ATOM     29  CA6 0Q4 A 125       7.751  15.458  34.481 -0.20 -0.09    +0.176 C 
DOCKED: BRANCH  29  30
DOCKED: ATOM     30  CB6 0Q4 A 125       7.752  15.417  36.031 -0.20 -0.01    +0.035 C 
DOCKED: BRANCH  30  31
DOCKED: ATOM     31  CG6 0Q4 A 125       7.168  16.659  36.792 -0.21 +0.00    +0.002 C 
DOCKED: BRANCH  31  32
DOCKED: ATOM     32  CD4 0Q4 A 125       6.682  17.835  35.857 -0.31 +0.00    -0.004 C 
DOCKED: ATOM     33  CE  0Q4 A 125       5.462  18.522  36.437 -0.07 -0.00    +0.005 C 
DOCKED: ENDBRANCH  31  32
DOCKED: ENDBRANCH  30  31
DOCKED: ENDBRANCH  29  30
DOCKED: BRANCH  29  34
DOCKED: ATOM     34  C6  0Q4 A 125       7.480  14.053  33.917 -0.01 -0.14    +0.238 C 
DOCKED: ATOM     35  O5  0Q4 A 125       6.969  13.912  32.768 -0.22 +0.15    -0.271 OA
DOCKED: ATOM     36  N7  0Q4 A 125       7.762  13.088  34.671 +0.16 +0.12    -0.368 N 
DOCKED: ATOM     37  H72 0Q4 A 125       8.175  13.201  35.596 +0.03 -0.04    +0.159 HD
DOCKED: ATOM     38  H71 0Q4 A 125       7.582  12.156  34.297 +0.55 -0.01    +0.159 HD
DOCKED: ENDBRANCH  29  34
DOCKED: ENDBRANCH  27  29
DOCKED: ENDBRANCH  23  25
DOCKED: ENDBRANCH  21  23
DOCKED: ENDBRANCH  13  19
DOCKED: ENDBRANCH  11  13
DOCKED: ENDBRANCH   1   9
DOCKED: BRANCH   1  39
DOCKED: ATOM     39  N3  0Q4 A 125      -0.615  17.091  36.138 -0.12 +0.40    -0.387 N 
DOCKED: ATOM     40  C2  0Q4 A 125      -1.433  16.130  36.529 +0.16 -0.05    +0.081 C 
DOCKED: ATOM     41  H3  0Q4 A 125      -0.988  17.828  35.618 -0.03 -0.26    +0.159 HD
DOCKED: BRANCH  40  42
DOCKED: ATOM     42  CA2 0Q4 A 125      -2.892  16.300  36.126 -0.07 -0.08    +0.123 C 
DOCKED: BRANCH  42  43
DOCKED: ATOM     43  CB2 0Q4 A 125      -3.786  15.163  36.677 +0.70 -0.02    +0.034 C 
DOCKED: BRANCH  43  44
DOCKED: ATOM     44  CG3 0Q4 A 125      -5.026  14.814  35.806 -0.42 +0.01    -0.020 C 
DOCKED: ATOM     45  CD1 0Q4 A 125      -6.201  15.767  36.026 -0.51 -0.01    +0.009 C 
DOCKED: ATOM     46  CD2 0Q4 A 125      -4.642  14.802  34.338 -0.18 -0.01    +0.009 C 
DOCKED: ENDBRANCH  43  44
DOCKED: ENDBRANCH  42  43
DOCKED: BRANCH  42  47
DOCKED: ATOM     47  N2  0Q4 A 125      -3.154  16.483  34.710 -0.09 +0.28    -0.350 N 
DOCKED: ATOM     48  C1  0Q4 A 125      -4.036  17.372  34.290 -0.25 -0.22    +0.241 C 
DOCKED: ATOM     49  O1  0Q4 A 125      -4.542  18.176  35.063 +0.02 +0.23    -0.271 OA
DOCKED: ATOM     50  HN2 0Q4 A 125      -2.693  15.907  34.061 +0.09 -0.12    +0.163 HD
DOCKED: BRANCH  48  51
DOCKED: ATOM     51  CA1 0Q4 A 125      -4.280  17.419  32.759 +0.16 -0.19    +0.180 C 
DOCKED: BRANCH  51  52
DOCKED: ATOM     52  CB1 0Q4 A 125      -5.830  17.268  32.334 -0.33 -0.01    +0.009 C 
DOCKED: ATOM     53  CG1 0Q4 A 125      -6.732  17.026  33.547 -0.44 -0.01    +0.012 C 
DOCKED: ATOM     54  CG2 0Q4 A 125      -6.329  18.545  31.627 +0.34 -0.02    +0.012 C 
DOCKED: ENDBRANCH  51  52
DOCKED: BRANCH  51  55
DOCKED: ATOM     55  N1  0Q4 A 125      -3.463  16.439  32.042 -0.09 +0.29    -0.346 N 
DOCKED: ATOM     56  C   0Q4 A 125      -3.340  16.420  30.705 -0.16 -0.19    +0.249 C 
DOCKED: ATOM     57  O   0Q4 A 125      -3.928  17.229  29.963 -0.13 +0.21    -0.271 OA
DOCKED: ATOM     58  H1  0Q4 A 125      -2.979  15.800  32.609 +0.09 -0.12    +0.163 HD
DOCKED: BRANCH  56  59
DOCKED: ATOM     59  CA  0Q4 A 125      -2.480  15.269  30.092 -0.23 -0.14    +0.274 C 
DOCKED: BRANCH  59  60
DOCKED: ATOM     60  N   0Q4 A 125      -1.569  14.729  31.148 -0.28 +0.03    -0.067 N 
DOCKED: ATOM     61  H   0Q4 A 125      -1.698  13.715  31.272 +0.36 -0.01    +0.275 HD
DOCKED: ATOM     62  H2  0Q4 A 125      -0.595  14.945  30.819 +0.17 -0.13    +0.275 HD
DOCKED: ATOM     63  HN3 0Q4 A 125      -1.747  15.198  32.050 +0.15 -0.14    +0.275 HD
DOCKED: ENDBRANCH  59  60
DOCKED: BRANCH  59  64
DOCKED: ATOM     64  CB  0Q4 A 125      -3.329  14.122  29.529 -0.28 -0.02    +0.044 C 
DOCKED: BRANCH  64  65
DOCKED: ATOM     65  CG  0Q4 A 125      -4.624  13.742  30.326 +0.43 -0.01    +0.023 C 
DOCKED: BRANCH  65  66
DOCKED: ATOM     66  CD  0Q4 A 125      -5.521  14.941  30.795 -0.12 -0.10    +0.138 C 
DOCKED: BRANCH  66  67
DOCKED: ATOM     67  NE  0Q4 A 125      -6.815  15.049  30.108 -0.15 +0.15    -0.227 N 
DOCKED: ATOM     68  CZ  0Q4 A 125      -7.155  16.040  29.279 +0.08 -0.45    +0.665 C 
DOCKED: ATOM     69  NH1 0Q4 A 125      -6.283  17.001  29.023 -0.06 +0.15    -0.235 N 
DOCKED: ATOM     70  NH2 0Q4 A 125      -8.405  16.138  28.804 -0.06 +0.16    -0.235 N 
DOCKED: ATOM     71 HH11 0Q4 A 125      -5.377  16.982  29.443 +0.09 -0.12    +0.174 HD
DOCKED: ATOM     72 HH12 0Q4 A 125      -6.528  17.748  28.403 +0.08 -0.10    +0.174 HD
DOCKED: ATOM     73 HH21 0Q4 A 125      -9.100  15.469  29.061 +0.04 -0.12    +0.174 HD
DOCKED: ATOM     74 HH22 0Q4 A 125      -8.638  16.891  28.185 +0.05 -0.11    +0.174 HD
DOCKED: ATOM     75  HE  0Q4 A 125      -7.487  14.349  30.263 +0.05 -0.12    +0.177 HD
DOCKED: ENDBRANCH  66  67
DOCKED: ENDBRANCH  65  66
DOCKED: ENDBRANCH  64  65
DOCKED: ENDBRANCH  59  64
DOCKED: ENDBRANCH  56  59
DOCKED: ENDBRANCH  51  55
DOCKED: ENDBRANCH  48  51
DOCKED: ENDBRANCH  42  47
DOCKED: ENDBRANCH  40  42
DOCKED: ENDBRANCH   1  39
DOCKED: TORSDOF 29
DOCKED: TER
DOCKED: ENDMDL
________________________________________________________________________________


	BEGINNING GENETIC ALGORITHM DOCKING 3 of 10
Run: 3 Seed: 483406814 422885055 [ Run 3 of 10 GA/GALS ]
Beginning LAMARCKIAN GENETIC ALGORITHM (LGA), with a maximum of 2500000 energy evaluations.

Final-Value: -19.064


	FINAL GENETIC ALGORITHM DOCKED STATE
	_______________________________________________


Detailed state:  trans -0.240 15.015 32.056 quatxyzw 0.142987 -0.979949 0.075189 -0.116621 center -1.190 15.842 33.892 ntor 29 67.3804 -69.8912 73.2894 -97.7455 77.6515 -151.4368 -85.5398 107.0804 152.8112 -101.5580 77.5229 -179.3232 -27.2609 165.7157 -151.2940 -179.6452 13.4294 -52.9318 -149.3267 -33.9174 -25.5832 -34.5506 179.7657 -171.3784 -65.5642 107.2845 69.0759 162.4647 -140.0244
State:	 -0.240  15.015  32.056   0.144 -0.987  0.076 -166.606     67.38  -69.89   73.29  -97.75   77.65 -151.44  -85.54  107.08  152.81 -101.56   77.52 -179.32  -27.26  165.72 -151.29 -179.65   13.43  -52.93 -149.33  -33.92  -25.58  -34.55  179.77 -171.38  -65.56  107.28   69.08  162.46 -140.02

DOCKED: MODEL        3
DOCKED: USER    Run = 3
DOCKED: USER    DPF = dock.dpf
DOCKED: USER  
DOCKED: USER    Estimated Free Energy of Binding    =   -6.40 kcal/mol  [=(1)+(2)+(3)-(4)]
DOCKED: USER    Estimated Inhibition Constant, Ki   =   20.32 uM (micromolar)  [Temperature = 298.15 K]
DOCKED: USER    
DOCKED: USER    (1) Final Intermolecular Energy     =  -15.05 kcal/mol
DOCKED: USER        vdW + Hbond + desolv Energy     =  -12.88 kcal/mol
DOCKED: USER        Electrostatic Energy            =   -2.17 kcal/mol
DOCKED: USER    (2) Final Total Internal Energy     =   -4.01 kcal/mol
DOCKED: USER    (3) Torsional Free Energy           =   +8.65 kcal/mol
DOCKED: USER    (4) Unbound System's Energy  [=(2)] =   -4.01 kcal/mol
DOCKED: USER    
DOCKED: USER    
DOCKED: USER    NEWDPF move lig1bai.pdbqt
DOCKED: USER    NEWDPF about -1.190000 15.842000 33.892000
DOCKED: USER    NEWDPF tran0 -0.240411 15.014681 32.056173
DOCKED: USER    NEWDPF quaternion0 0.142987 -0.979949 0.075189 -0.116621
DOCKED: USER    NEWDPF axisangle0 0.143969 -0.986682 0.075706 -166.605698
DOCKED: USER    NEWDPF quat0 0.143969 -0.986682 0.075706 -166.605698
DOCKED: USER    NEWDPF dihe0 67.38 -69.89 73.29 -97.75 77.65 -151.44 -85.54 107.08 152.81 -101.56 77.52 -179.32 -27.26 165.72 -151.29 -179.65 13.43 -52.93 -149.33 -33.92 -25.58 -34.55 179.77 -171.38 -65.56 107.28 69.08 162.46 -140.02 
DOCKED: USER  keepresnum = 1 
DOCKED: USER  
DOCKED: REMARK  29 active torsions:
DOCKED: REMARK  status: ('A' for Active; 'I' for Inactive)
DOCKED: REMARK    1  A    between atoms: N_1  and  CA_2 
DOCKED: REMARK    2  A    between atoms: CA_2  and  C_9 
DOCKED: REMARK    3  A    between atoms: CA_2  and  CB_11 
DOCKED: REMARK    4  A    between atoms: CA1_3  and  CB1_12 
DOCKED: REMARK    5  A    between atoms: CA1_3  and  C1_42 
DOCKED: REMARK    6  A    between atoms: CA1_3  and  N1_43 
DOCKED: REMARK    7  A    between atoms: CA2_4  and  CB2_13 
DOCKED: REMARK    8  A    between atoms: CA2_4  and  C2_45 
DOCKED: REMARK    9  A    between atoms: CA2_4  and  N2_46 
DOCKED: REMARK   10  A    between atoms: CA3_5  and  CB3_14 
DOCKED: REMARK   11  A    between atoms: CA3_5  and  C3_48 
DOCKED: REMARK   12  A    between atoms: CA3_5  and  N3_49 
DOCKED: REMARK   13  A    between atoms: CA4_6  and  CB4_15 
DOCKED: REMARK   14  A    between atoms: CA4_6  and  C4_51 
DOCKED: REMARK   15  A    between atoms: CA4_6  and  N4_52 
DOCKED: REMARK   16  A    between atoms: CA5_7  and  C5_54 
DOCKED: REMARK   17  A    between atoms: CA5_7  and  N5_55 
DOCKED: REMARK   18  A    between atoms: CA6_8  and  CB6_17 
DOCKED: REMARK   19  A    between atoms: CA6_8  and  C6_57 
DOCKED: REMARK   20  A    between atoms: CA6_8  and  N6_58 
DOCKED: REMARK       I    between atoms: C_9  and  N1_43 
DOCKED: REMARK   21  A    between atoms: CB_11  and  CG_18 
DOCKED: REMARK   22  A    between atoms: CB2_13  and  CG3_21 
DOCKED: REMARK   23  A    between atoms: CB3_14  and  CG4_22 
DOCKED: REMARK   24  A    between atoms: CB4_15  and  CG5_23 
DOCKED: REMARK   25  A    between atoms: CB6_17  and  CG6_24 
DOCKED: REMARK   26  A    between atoms: CG_18  and  CD_25 
DOCKED: REMARK   27  A    between atoms: CG5_23  and  CD3_30 
DOCKED: REMARK   28  A    between atoms: CG6_24  and  CD4_31 
DOCKED: REMARK   29  A    between atoms: CD_25  and  NE_35 
DOCKED: REMARK       I    between atoms: NE_35  and  CZ_38 
DOCKED: REMARK       I    between atoms: CZ_38  and  NH1_40 
DOCKED: REMARK       I    between atoms: C1_42  and  N2_46 
DOCKED: REMARK       I    between atoms: C3_48  and  N4_52 
DOCKED: REMARK       I    between atoms: C4_51  and  N5_55 
DOCKED: REMARK       I    between atoms: C5_54  and  N6_58 
DOCKED: REMARK       I    between atoms: C6_57  and  N7_59 
DOCKED: USER                              x       y       z     vdW  Elec       q    Type
DOCKED: USER                           _______ _______ _______ _____ _____    ______ ____
DOCKED: ROOT
DOCKED: ATOM      1  CA3 0Q4 A 125      -0.277  16.974  33.362 -0.22 -0.19    +0.177 C 
DOCKED: ENDROOT
DOCKED: BRANCH   1   2
DOCKED: ATOM      2  CB3 0Q4 A 125      -0.282  17.074  34.917 -0.30 -0.08    +0.073 C 
DOCKED: BRANCH   2   3
DOCKED: ATOM      3  CG4 0Q4 A 125       0.958  16.621  35.582 -0.27 +0.05    -0.056 A 
DOCKED: ATOM      4  CD1 0Q4 A 125       1.865  17.540  36.091 -0.31 -0.01    +0.007 A 
DOCKED: ATOM      5  CE1 0Q4 A 125       3.031  17.116  36.769 -0.27 -0.00    +0.001 A 
DOCKED: ATOM      6  CZ1 0Q4 A 125       3.294  15.751  36.931 -0.28 -0.00    +0.000 A 
DOCKED: ATOM      7  CE2 0Q4 A 125       2.396  14.818  36.415 -0.27 -0.00    +0.001 A 
DOCKED: ATOM      8  CD2 0Q4 A 125       1.221  15.264  35.737 -0.34 -0.00    +0.007 A 
DOCKED: ENDBRANCH   2   3
DOCKED: ENDBRANCH   1   2
DOCKED: BRANCH   1   9
DOCKED: ATOM      9  C3  0Q4 A 125       0.944  16.254  32.724 -0.19 -0.19    +0.241 C 
DOCKED: ATOM     10  O2  0Q4 A 125       0.794  15.549  31.723 -0.00 +0.17    -0.271 OA
DOCKED: ATOM     11  N4  0Q4 A 125       2.141  16.532  33.240 -0.09 +0.28    -0.346 N 
DOCKED: ATOM     12  H4  0Q4 A 125       2.210  17.095  34.041 +0.09 -0.15    +0.163 HD
DOCKED: BRANCH  11  13
DOCKED: ATOM     13  CA4 0Q4 A 125       3.390  15.992  32.696 -0.26 -0.12    +0.177 C 
DOCKED: BRANCH  13  14
DOCKED: ATOM     14  CB4 0Q4 A 125       3.270  15.883  31.149 -0.28 -0.03    +0.045 C 
DOCKED: BRANCH  14  15
DOCKED: ATOM     15  CG5 0Q4 A 125       3.520  17.141  30.340 -0.30 -0.10    +0.116 C 
DOCKED: BRANCH  15  16
DOCKED: ATOM     16  CD3 0Q4 A 125       4.667  16.989  29.330 -0.40 -0.11    +0.172 C 
DOCKED: ATOM     17  OE1 0Q4 A 125       5.687  17.689  29.475 -0.08 +0.45    -0.648 OA
DOCKED: ATOM     18  OE2 0Q4 A 125       4.567  16.169  28.380 -0.00 +0.36    -0.648 OA
DOCKED: ENDBRANCH  15  16
DOCKED: ENDBRANCH  14  15
DOCKED: ENDBRANCH  13  14
DOCKED: BRANCH  13  19
DOCKED: ATOM     19  C4  0Q4 A 125       4.662  16.766  33.058 -0.20 -0.16    +0.241 C 
DOCKED: ATOM     20  O3  0Q4 A 125       5.033  17.751  32.417 -0.24 +0.17    -0.271 OA
DOCKED: ATOM     21  N5  0Q4 A 125       5.414  16.214  33.996 -0.07 +0.20    -0.346 N 
DOCKED: ATOM     22  H5  0Q4 A 125       5.149  15.365  34.412 -0.05 -0.10    +0.163 HD
DOCKED: BRANCH  21  23
DOCKED: ATOM     23  CA5 0Q4 A 125       6.639  16.848  34.434 -0.18 -0.08    +0.172 C 
DOCKED: ATOM     24  CB5 0Q4 A 125       6.304  18.237  34.944 -0.28 -0.02    +0.042 C 
DOCKED: BRANCH  23  25
DOCKED: ATOM     25  C5  0Q4 A 125       7.469  16.097  35.505 -0.11 -0.07    +0.240 C 
DOCKED: ATOM     26  O4  0Q4 A 125       8.547  16.530  35.917 -0.11 +0.02    -0.271 OA
DOCKED: ATOM     27  N6  0Q4 A 125       6.953  14.935  35.892 -0.07 +0.10    -0.346 N 
DOCKED: ATOM     28  H6  0Q4 A 125       6.116  14.650  35.487 +0.05 -0.07    +0.163 HD
DOCKED: BRANCH  27  29
DOCKED: ATOM     29  CA6 0Q4 A 125       7.603  14.024  36.825 -0.17 -0.03    +0.176 C 
DOCKED: BRANCH  29  30
DOCKED: ATOM     30  CB6 0Q4 A 125       8.411  14.857  37.853 -0.13 +0.00    +0.035 C 
DOCKED: BRANCH  30  31
DOCKED: ATOM     31  CG6 0Q4 A 125       7.607  15.777  38.837 -0.15 +0.00    +0.002 C 
DOCKED: BRANCH  31  32
DOCKED: ATOM     32  CD4 0Q4 A 125       6.120  16.073  38.394 -0.24 -0.00    -0.004 C 
DOCKED: ATOM     33  CE  0Q4 A 125       5.839  17.561  38.395 -0.31 +0.00    +0.005 C 
DOCKED: ENDBRANCH  31  32
DOCKED: ENDBRANCH  30  31
DOCKED: ENDBRANCH  29  30
DOCKED: BRANCH  29  34
DOCKED: ATOM     34  C6  0Q4 A 125       6.472  13.264  37.536 -0.18 -0.04    +0.238 C 
DOCKED: ATOM     35  O5  0Q4 A 125       6.649  12.791  38.697 -0.12 +0.04    -0.271 OA
DOCKED: ATOM     36  N7  0Q4 A 125       5.405  13.119  36.888 -0.15 +0.07    -0.368 N 
DOCKED: ATOM     37  H72 0Q4 A 125       5.262  13.500  35.953 +0.04 -0.05    +0.159 HD
DOCKED: ATOM     38  H71 0Q4 A 125       4.655  12.615  37.361 +0.06 -0.03    +0.159 HD
DOCKED: ENDBRANCH  29  34
DOCKED: ENDBRANCH  27  29
DOCKED: ENDBRANCH  23  25
DOCKED: ENDBRANCH  21  23
DOCKED: ENDBRANCH  13  19
DOCKED: ENDBRANCH  11  13
DOCKED: ENDBRANCH   1   9
DOCKED: BRANCH   1  39
DOCKED: ATOM     39  N3  0Q4 A 125      -1.446  16.175  32.977 -0.06 +0.30    -0.387 N 
DOCKED: ATOM     40  C2  0Q4 A 125      -2.542  16.084  33.709 -0.16 -0.06    +0.081 C 
DOCKED: ATOM     41  H3  0Q4 A 125      -1.423  15.699  32.124 +0.09 -0.10    +0.159 HD
DOCKED: BRANCH  40  42
DOCKED: ATOM     42  CA2 0Q4 A 125      -3.664  15.242  33.116 -0.21 -0.09    +0.123 C 
DOCKED: BRANCH  42  43
DOCKED: ATOM     43  CB2 0Q4 A 125      -3.622  15.220  31.569 -0.26 -0.02    +0.034 C 
DOCKED: BRANCH  43  44
DOCKED: ATOM     44  CG3 0Q4 A 125      -3.936  16.577  30.878 -0.25 +0.02    -0.020 C 
DOCKED: ATOM     45  CD1 0Q4 A 125      -2.738  17.526  30.848 -0.22 -0.01    +0.009 C 
DOCKED: ATOM     46  CD2 0Q4 A 125      -4.435  16.337  29.465 -0.25 -0.01    +0.009 C 
DOCKED: ENDBRANCH  43  44
DOCKED: ENDBRANCH  42  43
DOCKED: BRANCH  42  47
DOCKED: ATOM     47  N2  0Q4 A 125      -5.010  15.552  33.562 -0.11 +0.29    -0.350 N 
DOCKED: ATOM     48  C1  0Q4 A 125      -5.268  16.662  34.230 -0.26 -0.19    +0.241 C 
DOCKED: ATOM     49  O1  0Q4 A 125      -4.420  17.537  34.355 -0.26 +0.24    -0.271 OA
DOCKED: ATOM     50  HN2 0Q4 A 125      -5.729  14.903  33.396 -0.36 -0.16    +0.163 HD
DOCKED: BRANCH  48  51
DOCKED: ATOM     51  CA1 0Q4 A 125      -6.730  16.841  34.716 -0.39 -0.16    +0.180 C 
DOCKED: BRANCH  51  52
DOCKED: ATOM     52  CB1 0Q4 A 125      -7.262  15.642  35.656 -0.50 -0.01    +0.009 C 
DOCKED: ATOM     53  CG1 0Q4 A 125      -7.830  16.165  36.978 -0.53 -0.01    +0.012 C 
DOCKED: ATOM     54  CG2 0Q4 A 125      -8.379  14.849  34.948 -0.18 -0.01    +0.012 C 
DOCKED: ENDBRANCH  51  52
DOCKED: BRANCH  51  55
DOCKED: ATOM     55  N1  0Q4 A 125      -7.656  17.059  33.603 -0.21 +0.40    -0.346 N 
DOCKED: ATOM     56  C   0Q4 A 125      -7.719  16.254  32.530 -0.21 -0.27    +0.249 C 
DOCKED: ATOM     57  O   0Q4 A 125      -6.980  15.262  32.387 -0.18 +0.25    -0.271 OA
DOCKED: ATOM     58  H1  0Q4 A 125      -8.258  17.828  33.701 +0.04 -0.22    +0.163 HD
DOCKED: BRANCH  56  59
DOCKED: ATOM     59  CA  0Q4 A 125      -8.719  16.662  31.401 +0.08 -0.41    +0.274 C 
DOCKED: BRANCH  59  60
DOCKED: ATOM     60  N   0Q4 A 125      -7.953  17.276  30.272 -0.16 +0.09    -0.067 N 
DOCKED: ATOM     61  H   0Q4 A 125      -7.750  16.584  29.537 +0.10 -0.24    +0.275 HD
DOCKED: ATOM     62  H2  0Q4 A 125      -8.563  18.048  29.903 -0.21 -0.58    +0.275 HD
DOCKED: ATOM     63  HN3 0Q4 A 125      -7.061  17.668  30.614 +0.13 -0.33    +0.275 HD
DOCKED: ENDBRANCH  59  60
DOCKED: BRANCH  59  64
DOCKED: ATOM     64  CB  0Q4 A 125      -9.533  15.476  30.867 -0.20 -0.04    +0.044 C 
DOCKED: BRANCH  64  65
DOCKED: ATOM     65  CG  0Q4 A 125      -9.504  14.158  31.714 -0.26 -0.02    +0.023 C 
DOCKED: BRANCH  65  66
DOCKED: ATOM     66  CD  0Q4 A 125     -10.837  13.786  32.453 -0.25 -0.09    +0.138 C 
DOCKED: BRANCH  66  67
DOCKED: ATOM     67  NE  0Q4 A 125     -11.063  14.502  33.716 -0.16 +0.23    -0.227 N 
DOCKED: ATOM     68  CZ  0Q4 A 125     -11.332  13.916  34.885 +0.05 -0.61    +0.665 C 
DOCKED: ATOM     69  NH1 0Q4 A 125     -11.391  12.597  34.952 -0.06 +0.17    -0.235 N 
DOCKED: ATOM     70  NH2 0Q4 A 125     -11.664  14.647  35.960 -0.20 +0.29    -0.235 N 
DOCKED: ATOM     71 HH11 0Q4 A 125     -11.231  12.045  34.135 -0.37 -0.12    +0.174 HD
DOCKED: ATOM     72 HH12 0Q4 A 125     -11.592  12.147  35.824 -0.34 -0.14    +0.174 HD
DOCKED: ATOM     73 HH21 0Q4 A 125     -11.712  15.643  35.901 -0.22 -0.40    +0.174 HD
DOCKED: ATOM     74 HH22 0Q4 A 125     -11.864  14.185  36.826 +0.11 -0.15    +0.174 HD
DOCKED: ATOM     75  HE  0Q4 A 125     -11.017  15.484  33.711 -0.05 -0.27    +0.177 HD
DOCKED: ENDBRANCH  66  67
DOCKED: ENDBRANCH  65  66
DOCKED: ENDBRANCH  64  65
DOCKED: ENDBRANCH  59  64
DOCKED: ENDBRANCH  56  59
DOCKED: ENDBRANCH  51  55
DOCKED: ENDBRANCH  48  51
DOCKED: ENDBRANCH  42  47
DOCKED: ENDBRANCH  40  42
DOCKED: ENDBRANCH   1  39
DOCKED: TORSDOF 29
DOCKED: TER
DOCKED: ENDMDL
________________________________________________________________________________


	BEGINNING GENETIC ALGORITHM DOCKING 4 of 10
Run: 4 Seed: 349173074 811264253 [ Run 4 of 10 GA/GALS ]
Beginning LAMARCKIAN GENETIC ALGORITHM (LGA), with a maximum of 2500000 energy evaluations.

Final-Value: -11.289


	FINAL GENETIC ALGORITHM DOCKED STATE
	_______________________________________________


Detailed state:  trans -4.621 16.575 32.344 quatxyzw 0.956881 0.237554 0.014907 -0.166505 center -1.190 15.842 33.892 ntor 29 -140.2168 -159.9787 173.0913 117.0442 -83.2912 -163.7826 -156.9884 -39.7431 -179.4171 102.6633 113.4062 -179.9374 -3.0291 29.5676 72.1375 132.0822 -103.2395 23.9809 -43.3253 -178.7422 -89.6580 110.6229 -109.5565 73.7199 107.1501 117.3253 -98.5899 -8.7844 13.8336
State:	 -4.621  16.575  32.344   0.970  0.241  0.015 -160.831   -140.22 -159.98  173.09  117.04  -83.29 -163.78 -156.99  -39.74 -179.42  102.66  113.41 -179.94   -3.03   29.57   72.14  132.08 -103.24   23.98  -43.33 -178.74  -89.66  110.62 -109.56   73.72  107.15  117.33  -98.59   -8.78   13.83

DOCKED: MODEL        4
DOCKED: USER    Run = 4
DOCKED: USER    DPF = dock.dpf
DOCKED: USER  
DOCKED: USER    Estimated Free Energy of Binding    =   -2.65 kcal/mol  [=(1)+(2)+(3)-(4)]
DOCKED: USER    Estimated Inhibition Constant, Ki   =   11.43 mM (millimolar)  [Temperature = 298.15 K]
DOCKED: USER    
DOCKED: USER    (1) Final Intermolecular Energy     =  -11.30 kcal/mol
DOCKED: USER        vdW + Hbond + desolv Energy     =  -11.37 kcal/mol
DOCKED: USER        Electrostatic Energy            =   +0.07 kcal/mol
DOCKED: USER    (2) Final Total Internal Energy     =   +0.01 kcal/mol
DOCKED: USER    (3) Torsional Free Energy           =   +8.65 kcal/mol
DOCKED: USER    (4) Unbound System's Energy  [=(2)] =   +0.01 kcal/mol
DOCKED: USER    
DOCKED: USER    
DOCKED: USER    NEWDPF move lig1bai.pdbqt
DOCKED: USER    NEWDPF about -1.190000 15.842000 33.892000
DOCKED: USER    NEWDPF tran0 -4.621425 16.574653 32.344285
DOCKED: USER    NEWDPF quaternion0 0.956881 0.237554 0.014907 -0.166505
DOCKED: USER    NEWDPF axisangle0 0.970428 0.240917 0.015118 -160.830636
DOCKED: USER    NEWDPF quat0 0.970428 0.240917 0.015118 -160.830636
DOCKED: USER    NEWDPF dihe0 -140.22 -159.98 173.09 117.04 -83.29 -163.78 -156.99 -39.74 -179.42 102.66 113.41 -179.94 -3.03 29.57 72.14 132.08 -103.24 23.98 -43.33 -178.74 -89.66 110.62 -109.56 73.72 107.15 117.33 -98.59 -8.78 13.83 
DOCKED: USER  keepresnum = 1 
DOCKED: USER  
DOCKED: REMARK  29 active torsions:
DOCKED: REMARK  status: ('A' for Active; 'I' for Inactive)
DOCKED: REMARK    1  A    between atoms: N_1  and  CA_2 
DOCKED: REMARK    2  A    between atoms: CA_2  and  C_9 
DOCKED: REMARK    3  A    between atoms: CA_2  and  CB_11 
DOCKED: REMARK    4  A    between atoms: CA1_3  and  CB1_12 
DOCKED: REMARK    5  A    between atoms: CA1_3  and  C1_42 
DOCKED: REMARK    6  A    between atoms: CA1_3  and  N1_43 
DOCKED: REMARK    7  A    between atoms: CA2_4  and  CB2_13 
DOCKED: REMARK    8  A    between atoms: CA2_4  and  C2_45 
DOCKED: REMARK    9  A    between atoms: CA2_4  and  N2_46 
DOCKED: REMARK   10  A    between atoms: CA3_5  and  CB3_14 
DOCKED: REMARK   11  A    between atoms: CA3_5  and  C3_48 
DOCKED: REMARK   12  A    between atoms: CA3_5  and  N3_49 
DOCKED: REMARK   13  A    between atoms: CA4_6  and  CB4_15 
DOCKED: REMARK   14  A    between atoms: CA4_6  and  C4_51 
DOCKED: REMARK   15  A    between atoms: CA4_6  and  N4_52 
DOCKED: REMARK   16  A    between atoms: CA5_7  and  C5_54 
DOCKED: REMARK   17  A    between atoms: CA5_7  and  N5_55 
DOCKED: REMARK   18  A    between atoms: CA6_8  and  CB6_17 
DOCKED: REMARK   19  A    between atoms: CA6_8  and  C6_57 
DOCKED: REMARK   20  A    between atoms: CA6_8  and  N6_58 
DOCKED: REMARK       I    between atoms: C_9  and  N1_43 
DOCKED: REMARK   21  A    between atoms: CB_11  and  CG_18 
DOCKED: REMARK   22  A    between atoms: CB2_13  and  CG3_21 
DOCKED: REMARK   23  A    between atoms: CB3_14  and  CG4_22 
DOCKED: REMARK   24  A    between atoms: CB4_15  and  CG5_23 
DOCKED: REMARK   25  A    between atoms: CB6_17  and  CG6_24 
DOCKED: REMARK   26  A    between atoms: CG_18  and  CD_25 
DOCKED: REMARK   27  A    between atoms: CG5_23  and  CD3_30 
DOCKED: REMARK   28  A    between atoms: CG6_24  and  CD4_31 
DOCKED: REMARK   29  A    between atoms: CD_25  and  NE_35 
DOCKED: REMARK       I    between atoms: NE_35  and  CZ_38 
DOCKED: REMARK       I    between atoms: CZ_38  and  NH1_40 
DOCKED: REMARK       I    between atoms: C1_42  and  N2_46 
DOCKED: REMARK       I    between atoms: C3_48  and  N4_52 
DOCKED: REMARK       I    between atoms: C4_51  and  N5_55 
DOCKED: REMARK       I    between atoms: C5_54  and  N6_58 
DOCKED: REMARK       I    between atoms: C6_57  and  N7_59 
DOCKED: USER                              x       y       z     vdW  Elec       q    Type
DOCKED: USER                           _______ _______ _______ _____ _____    ______ ____
DOCKED: ROOT
DOCKED: ATOM      1  CA3 0Q4 A 125      -4.157  15.573  34.424 -0.16 -0.13    +0.177 C 
DOCKED: ENDROOT
DOCKED: BRANCH   1   2
DOCKED: ATOM      2  CB3 0Q4 A 125      -4.031  16.280  35.807 -0.35 -0.05    +0.073 C 
DOCKED: BRANCH   2   3
DOCKED: ATOM      3  CG4 0Q4 A 125      -5.282  16.362  36.591 -0.40 +0.04    -0.056 A 
DOCKED: ATOM      4  CD1 0Q4 A 125      -5.499  15.514  37.668 -0.35 -0.00    +0.007 A 
DOCKED: ATOM      5  CE1 0Q4 A 125      -6.673  15.615  38.450 -0.20 -0.00    +0.001 A 
DOCKED: ATOM      6  CZ1 0Q4 A 125      -7.643  16.574  38.143 -0.51 -0.00    +0.000 A 
DOCKED: ATOM      7  CE2 0Q4 A 125      -7.441  17.425  37.058 +0.24 -0.00    +0.001 A 
DOCKED: ATOM      8  CD2 0Q4 A 125      -6.249  17.312  36.281 -0.53 -0.01    +0.007 A 
DOCKED: ENDBRANCH   2   3
DOCKED: ENDBRANCH   1   2
DOCKED: BRANCH   1   9
DOCKED: ATOM      9  C3  0Q4 A 125      -5.525  15.720  33.700 -0.21 -0.20    +0.241 C 
DOCKED: ATOM     10  O2  0Q4 A 125      -6.548  15.956  34.348 -0.21 +0.23    -0.271 OA
DOCKED: ATOM     11  N4  0Q4 A 125      -5.503  15.693  32.367 -0.07 +0.30    -0.346 N 
DOCKED: ATOM     12  H4  0Q4 A 125      -4.665  15.495  31.895 +0.01 -0.13    +0.163 HD
DOCKED: BRANCH  11  13
DOCKED: ATOM     13  CA4 0Q4 A 125      -6.699  15.896  31.544 -0.19 -0.16    +0.177 C 
DOCKED: BRANCH  13  14
DOCKED: ATOM     14  CB4 0Q4 A 125      -6.524  15.146  30.194 -0.25 -0.03    +0.045 C 
DOCKED: BRANCH  14  15
DOCKED: ATOM     15  CG5 0Q4 A 125      -5.571  15.750  29.181 -0.17 -0.07    +0.116 C 
DOCKED: BRANCH  15  16
DOCKED: ATOM     16  CD3 0Q4 A 125      -4.276  14.940  29.013 -0.26 -0.08    +0.172 C 
DOCKED: ATOM     17  OE1 0Q4 A 125      -3.660  15.016  27.934 +0.15 +0.24    -0.648 OA
DOCKED: ATOM     18  OE2 0Q4 A 125      -3.855  14.220  29.956 -0.03 +0.30    -0.648 OA
DOCKED: ENDBRANCH  15  16
DOCKED: ENDBRANCH  14  15
DOCKED: ENDBRANCH  13  14
DOCKED: BRANCH  13  19
DOCKED: ATOM     19  C4  0Q4 A 125      -8.027  15.488  32.190 -0.21 -0.23    +0.241 C 
DOCKED: ATOM     20  O3  0Q4 A 125      -8.437  16.012  33.228 -0.21 +0.33    -0.271 OA
DOCKED: ATOM     21  N5  0Q4 A 125      -8.620  14.435  31.653 -0.18 +0.27    -0.346 N 
DOCKED: ATOM     22  H5  0Q4 A 125      -8.210  13.966  30.893 +0.03 -0.12    +0.163 HD
DOCKED: BRANCH  21  23
DOCKED: ATOM     23  CA5 0Q4 A 125      -9.884  13.952  32.166 -0.23 -0.12    +0.172 C 
DOCKED: ATOM     24  CB5 0Q4 A 125      -9.603  12.990  33.305 -0.09 -0.02    +0.042 C 
DOCKED: BRANCH  23  25
DOCKED: ATOM     25  C5  0Q4 A 125     -10.900  15.021  32.640 -0.15 -0.25    +0.240 C 
DOCKED: ATOM     26  O4  0Q4 A 125     -10.771  15.612  33.714 -0.12 +0.45    -0.271 OA
DOCKED: ATOM     27  N6  0Q4 A 125     -11.935  15.201  31.826 -0.02 +0.30    -0.346 N 
DOCKED: ATOM     28  H6  0Q4 A 125     -11.978  14.664  31.017 +0.04 -0.11    +0.163 HD
DOCKED: BRANCH  27  29
DOCKED: ATOM     29  CA6 0Q4 A 125     -13.051  16.094  32.112 -0.07 -0.16    +0.176 C 
DOCKED: BRANCH  29  30
DOCKED: ATOM     30  CB6 0Q4 A 125     -14.270  15.243  32.551 -0.08 -0.02    +0.035 C 
DOCKED: BRANCH  30  31
DOCKED: ATOM     31  CG6 0Q4 A 125     -14.133  13.682  32.476 -0.13 -0.00    +0.002 C 
DOCKED: BRANCH  31  32
DOCKED: ATOM     32  CD4 0Q4 A 125     -13.407  13.024  33.714 -0.21 +0.00    -0.004 C 
DOCKED: ATOM     33  CE  0Q4 A 125     -13.524  13.902  34.942 -0.31 -0.00    +0.005 C 
DOCKED: ENDBRANCH  31  32
DOCKED: ENDBRANCH  30  31
DOCKED: ENDBRANCH  29  30
DOCKED: BRANCH  29  34
DOCKED: ATOM     34  C6  0Q4 A 125     -12.591  16.993  33.272 -0.13 -0.36    +0.238 C 
DOCKED: ATOM     35  O5  0Q4 A 125     -13.198  16.966  34.382 -0.14 +0.44    -0.271 OA
DOCKED: ATOM     36  N7  0Q4 A 125     -11.622  17.756  33.034 +0.05 +0.78    -0.368 N 
DOCKED: ATOM     37  H72 0Q4 A 125     -11.132  17.778  32.140 -0.52 -0.45    +0.159 HD
DOCKED: ATOM     38  H71 0Q4 A 125     -11.318  18.352  33.804 -0.23 -0.41    +0.159 HD
DOCKED: ENDBRANCH  29  34
DOCKED: ENDBRANCH  27  29
DOCKED: ENDBRANCH  23  25
DOCKED: ENDBRANCH  21  23
DOCKED: ENDBRANCH  13  19
DOCKED: ENDBRANCH  11  13
DOCKED: ENDBRANCH   1   9
DOCKED: BRANCH   1  39
DOCKED: ATOM     39  N3  0Q4 A 125      -3.173  16.194  33.530 -0.07 +0.30    -0.387 N 
DOCKED: ATOM     40  C2  0Q4 A 125      -3.006  15.838  32.269 -0.30 -0.06    +0.081 C 
DOCKED: ATOM     41  H3  0Q4 A 125      -2.624  16.922  33.878 +0.09 -0.15    +0.159 HD
DOCKED: BRANCH  40  42
DOCKED: ATOM     42  CA2 0Q4 A 125      -1.966  16.633  31.491 -0.25 -0.11    +0.123 C 
DOCKED: BRANCH  42  43
DOCKED: ATOM     43  CB2 0Q4 A 125      -1.494  15.888  30.218 -0.34 -0.02    +0.034 C 
DOCKED: BRANCH  43  44
DOCKED: ATOM     44  CG3 0Q4 A 125      -1.157  16.798  29.004 -0.40 +0.01    -0.020 C 
DOCKED: ATOM     45  CD1 0Q4 A 125      -2.372  17.553  28.465 -0.38 -0.01    +0.009 C 
DOCKED: ATOM     46  CD2 0Q4 A 125      -0.066  17.783  29.381 -0.21 -0.01    +0.009 C 
DOCKED: ENDBRANCH  43  44
DOCKED: ENDBRANCH  42  43
DOCKED: BRANCH  42  47
DOCKED: ATOM     47  N2  0Q4 A 125      -0.813  17.096  32.239 -0.08 +0.39    -0.350 N 
DOCKED: ATOM     48  C1  0Q4 A 125      -0.440  16.497  33.356 -0.18 -0.22    +0.241 C 
DOCKED: ATOM     49  O1  0Q4 A 125      -0.952  15.442  33.710 -0.09 +0.15    -0.271 OA
DOCKED: ATOM     50  HN2 0Q4 A 125      -0.329  17.893  31.927 +0.09 -0.25    +0.163 HD
DOCKED: BRANCH  48  51
DOCKED: ATOM     51  CA1 0Q4 A 125       0.762  17.132  34.102 -0.23 -0.20    +0.180 C 
DOCKED: BRANCH  51  52
DOCKED: ATOM     52  CB1 0Q4 A 125       2.107  17.237  33.214 -0.35 -0.01    +0.009 C 
DOCKED: ATOM     53  CG1 0Q4 A 125       2.244  16.059  32.247 -0.30 -0.01    +0.012 C 
DOCKED: ATOM     54  CG2 0Q4 A 125       2.108  18.533  32.377 -0.19 -0.02    +0.012 C 
DOCKED: ENDBRANCH  51  52
DOCKED: BRANCH  51  55
DOCKED: ATOM     55  N1  0Q4 A 125       1.045  16.454  35.368 -0.09 +0.26    -0.346 N 
DOCKED: ATOM     56  C   0Q4 A 125       2.234  15.900  35.656 -0.20 -0.12    +0.249 C 
DOCKED: ATOM     57  O   0Q4 A 125       3.192  15.906  34.860 -0.16 +0.15    -0.271 OA
DOCKED: ATOM     58  H1  0Q4 A 125       0.309  16.450  36.016 +0.10 -0.12    +0.163 HD
DOCKED: BRANCH  56  59
DOCKED: ATOM     59  CA  0Q4 A 125       2.353  15.158  37.026 -0.26 -0.08    +0.274 C 
DOCKED: BRANCH  59  60
DOCKED: ATOM     60  N   0Q4 A 125       1.079  14.420  37.290 -0.36 +0.01    -0.067 N 
DOCKED: ATOM     61  H   0Q4 A 125       1.253  13.418  37.451 +0.17 -0.03    +0.275 HD
DOCKED: ATOM     62  H2  0Q4 A 125       0.663  14.870  38.144 +0.18 -0.07    +0.275 HD
DOCKED: ATOM     63  HN3 0Q4 A 125       0.433  14.521  36.491 +0.16 -0.03    +0.275 HD
DOCKED: ENDBRANCH  59  60
DOCKED: BRANCH  59  64
DOCKED: ATOM     64  CB  0Q4 A 125       3.523  14.168  37.071 -0.30 -0.01    +0.044 C 
DOCKED: BRANCH  64  65
DOCKED: ATOM     65  CG  0Q4 A 125       4.899  14.719  37.582 -0.29 -0.00    +0.023 C 
DOCKED: BRANCH  65  66
DOCKED: ATOM     66  CD  0Q4 A 125       4.969  16.266  37.835 -0.19 -0.03    +0.138 C 
DOCKED: BRANCH  66  67
DOCKED: ATOM     67  NE  0Q4 A 125       6.102  16.946  37.193 -0.12 +0.01    -0.227 N 
DOCKED: ATOM     68  CZ  0Q4 A 125       6.041  17.585  36.022 +0.05 -0.18    +0.665 C 
DOCKED: ATOM     69  NH1 0Q4 A 125       4.889  17.645  35.374 -0.01 +0.15    -0.235 N 
DOCKED: ATOM     70  NH2 0Q4 A 125       7.152  18.057  35.438 -0.20 +0.04    -0.235 N 
DOCKED: ATOM     71 HH11 0Q4 A 125       4.073  17.219  35.761 +0.04 -0.11    +0.174 HD
DOCKED: ATOM     72 HH12 0Q4 A 125       4.833  18.122  34.495 -0.46 -0.16    +0.174 HD
DOCKED: ATOM     73 HH21 0Q4 A 125       8.043  17.939  35.873 +0.06 +0.02    +0.174 HD
DOCKED: ATOM     74 HH22 0Q4 A 125       7.082  18.532  34.558 +0.07 -0.05    +0.174 HD
DOCKED: ATOM     75  HE  0Q4 A 125       6.974  16.934  37.647 +0.06 +0.04    +0.177 HD
DOCKED: ENDBRANCH  66  67
DOCKED: ENDBRANCH  65  66
DOCKED: ENDBRANCH  64  65
DOCKED: ENDBRANCH  59  64
DOCKED: ENDBRANCH  56  59
DOCKED: ENDBRANCH  51  55
DOCKED: ENDBRANCH  48  51
DOCKED: ENDBRANCH  42  47
DOCKED: ENDBRANCH  40  42
DOCKED: ENDBRANCH   1  39
DOCKED: TORSDOF 29
DOCKED: TER
DOCKED: ENDMDL
________________________________________________________________________________


	BEGINNING GENETIC ALGORITHM DOCKING 5 of 10
Run: 5 Seed: 1035198991 1883486098 [ Run 5 of 10 GA/GALS ]
Beginning LAMARCKIAN GENETIC ALGORITHM (LGA), with a maximum of 2500000 energy evaluations.

Final-Value: -8.399


	FINAL GENETIC ALGORITHM DOCKED STATE
	_______________________________________________


Detailed state:  trans -4.771 15.850 32.489 quatxyzw -0.976227 -0.179621 -0.086122 0.085437 center -1.190 15.842 33.892 ntor 29 -154.7437 30.6140 -179.4033 158.2464 -179.4654 -98.9035 -131.0580 -90.1421 180.0000 -169.9674 -129.0944 -159.2144 -47.8672 -133.7100 -55.5809 -161.1335 178.6433 100.8240 23.9912 77.1098 142.7611 155.4229 112.0821 -162.0994 -180.0000 141.1549 -165.9683 -7.9006 13.4629
State:	 -4.771  15.850  32.489  -0.980 -0.180 -0.086 170.198   -154.74   30.61 -179.40  158.25 -179.47  -98.90 -131.06  -90.14  180.00 -169.97 -129.09 -159.21  -47.87 -133.71  -55.58 -161.13  178.64  100.82   23.99   77.11  142.76  155.42  112.08 -162.10 -180.00  141.15 -165.97   -7.90   13.46

DOCKED: MODEL        5
DOCKED: USER    Run = 5
DOCKED: USER    DPF = dock.dpf
DOCKED: USER  
DOCKED: USER    Estimated Free Energy of Binding    =   +5.74 kcal/mol  [=(1)+(2)+(3)-(4)]
DOCKED: USER    
DOCKED: USER    (1) Final Intermolecular Energy     =   -2.91 kcal/mol
DOCKED: USER        vdW + Hbond + desolv Energy     =   -1.81 kcal/mol
DOCKED: USER        Electrostatic Energy            =   -1.11 kcal/mol
DOCKED: USER    (2) Final Total Internal Energy     =   -5.49 kcal/mol
DOCKED: USER    (3) Torsional Free Energy           =   +8.65 kcal/mol
DOCKED: USER    (4) Unbound System's Energy  [=(2)] =   -5.49 kcal/mol
DOCKED: USER    
DOCKED: USER    
DOCKED: USER    NEWDPF move lig1bai.pdbqt
DOCKED: USER    NEWDPF about -1.190000 15.842000 33.892000
DOCKED: USER    NEWDPF tran0 -4.770884 15.849961 32.488562
DOCKED: USER    NEWDPF quaternion0 -0.976227 -0.179621 -0.086122 0.085437
DOCKED: USER    NEWDPF axisangle0 -0.979810 -0.180280 -0.086438 170.197723
DOCKED: USER    NEWDPF quat0 -0.979810 -0.180280 -0.086438 170.197723
DOCKED: USER    NEWDPF dihe0 -154.74 30.61 -179.40 158.25 -179.47 -98.90 -131.06 -90.14 180.00 -169.97 -129.09 -159.21 -47.87 -133.71 -55.58 -161.13 178.64 100.82 23.99 77.11 142.76 155.42 112.08 -162.10 -180.00 141.15 -165.97 -7.90 13.46 
DOCKED: USER  keepresnum = 1 
DOCKED: USER  
DOCKED: REMARK  29 active torsions:
DOCKED: REMARK  status: ('A' for Active; 'I' for Inactive)
DOCKED: REMARK    1  A    between atoms: N_1  and  CA_2 
DOCKED: REMARK    2  A    between atoms: CA_2  and  C_9 
DOCKED: REMARK    3  A    between atoms: CA_2  and  CB_11 
DOCKED: REMARK    4  A    between atoms: CA1_3  and  CB1_12 
DOCKED: REMARK    5  A    between atoms: CA1_3  and  C1_42 
DOCKED: REMARK    6  A    between atoms: CA1_3  and  N1_43 
DOCKED: REMARK    7  A    between atoms: CA2_4  and  CB2_13 
DOCKED: REMARK    8  A    between atoms: CA2_4  and  C2_45 
DOCKED: REMARK    9  A    between atoms: CA2_4  and  N2_46 
DOCKED: REMARK   10  A    between atoms: CA3_5  and  CB3_14 
DOCKED: REMARK   11  A    between atoms: CA3_5  and  C3_48 
DOCKED: REMARK   12  A    between atoms: CA3_5  and  N3_49 
DOCKED: REMARK   13  A    between atoms: CA4_6  and  CB4_15 
DOCKED: REMARK   14  A    between atoms: CA4_6  and  C4_51 
DOCKED: REMARK   15  A    between atoms: CA4_6  and  N4_52 
DOCKED: REMARK   16  A    between atoms: CA5_7  and  C5_54 
DOCKED: REMARK   17  A    between atoms: CA5_7  and  N5_55 
DOCKED: REMARK   18  A    between atoms: CA6_8  and  CB6_17 
DOCKED: REMARK   19  A    between atoms: CA6_8  and  C6_57 
DOCKED: REMARK   20  A    between atoms: CA6_8  and  N6_58 
DOCKED: REMARK       I    between atoms: C_9  and  N1_43 
DOCKED: REMARK   21  A    between atoms: CB_11  and  CG_18 
DOCKED: REMARK   22  A    between atoms: CB2_13  and  CG3_21 
DOCKED: REMARK   23  A    between atoms: CB3_14  and  CG4_22 
DOCKED: REMARK   24  A    between atoms: CB4_15  and  CG5_23 
DOCKED: REMARK   25  A    between atoms: CB6_17  and  CG6_24 
DOCKED: REMARK   26  A    between atoms: CG_18  and  CD_25 
DOCKED: REMARK   27  A    between atoms: CG5_23  and  CD3_30 
DOCKED: REMARK   28  A    between atoms: CG6_24  and  CD4_31 
DOCKED: REMARK   29  A    between atoms: CD_25  and  NE_35 
DOCKED: REMARK       I    between atoms: NE_35  and  CZ_38 
DOCKED: REMARK       I    between atoms: CZ_38  and  NH1_40 
DOCKED: REMARK       I    between atoms: C1_42  and  N2_46 
DOCKED: REMARK       I    between atoms: C3_48  and  N4_52 
DOCKED: REMARK       I    between atoms: C4_51  and  N5_55 
DOCKED: REMARK       I    between atoms: C5_54  and  N6_58 
DOCKED: REMARK       I    between atoms: C6_57  and  N7_59 
DOCKED: USER                              x       y       z     vdW  Elec       q    Type
DOCKED: USER                           _______ _______ _______ _____ _____    ______ ____
DOCKED: ROOT
DOCKED: ATOM      1  CA3 0Q4 A 125      -4.654  14.428  34.362 +0.49 -0.14    +0.177 C 
DOCKED: ENDROOT
DOCKED: BRANCH   1   2
DOCKED: ATOM      2  CB3 0Q4 A 125      -4.644  14.843  35.864 -0.09 -0.04    +0.073 C 
DOCKED: BRANCH   2   3
DOCKED: ATOM      3  CG4 0Q4 A 125      -5.663  15.840  36.250 -0.40 +0.04    -0.056 A 
DOCKED: ATOM      4  CD1 0Q4 A 125      -6.564  15.573  37.272 -0.41 -0.00    +0.007 A 
DOCKED: ATOM      5  CE1 0Q4 A 125      -7.513  16.540  37.678 -0.53 -0.00    +0.001 A 
DOCKED: ATOM      6  CZ1 0Q4 A 125      -7.565  17.786  37.046 +2.39 -0.00    +0.000 A 
DOCKED: ATOM      7  CE2 0Q4 A 125      -6.672  18.063  36.011 -0.31 -0.00    +0.001 A 
DOCKED: ATOM      8  CD2 0Q4 A 125      -5.717  17.077  35.616 -0.46 -0.01    +0.007 A 
DOCKED: ENDBRANCH   2   3
DOCKED: ENDBRANCH   1   2
DOCKED: BRANCH   1   9
DOCKED: ATOM      9  C3  0Q4 A 125      -5.903  14.853  33.541 +1.91 -0.23    +0.241 C 
DOCKED: ATOM     10  O2  0Q4 A 125      -6.871  14.094  33.446 +1.53 +0.26    -0.271 OA
DOCKED: ATOM     11  N4  0Q4 A 125      -5.910  16.096  33.058 -0.09 +0.30    -0.346 N 
DOCKED: ATOM     12  H4  0Q4 A 125      -5.114  16.662  33.153 +0.09 -0.14    +0.163 HD
DOCKED: BRANCH  11  13
DOCKED: ATOM     13  CA4 0Q4 A 125      -7.049  16.665  32.332 -0.25 -0.18    +0.177 C 
DOCKED: BRANCH  13  14
DOCKED: ATOM     14  CB4 0Q4 A 125      -7.027  16.152  30.865 -0.23 -0.04    +0.045 C 
DOCKED: BRANCH  14  15
DOCKED: ATOM     15  CG5 0Q4 A 125      -6.110  14.987  30.548 -0.23 -0.08    +0.116 C 
DOCKED: BRANCH  15  16
DOCKED: ATOM     16  CD3 0Q4 A 125      -6.276  14.461  29.114 -0.23 -0.09    +0.172 C 
DOCKED: ATOM     17  OE1 0Q4 A 125      -7.284  14.799  28.467 +0.03 +0.31    -0.648 OA
DOCKED: ATOM     18  OE2 0Q4 A 125      -5.401  13.706  28.613 -0.07 +0.26    -0.648 OA
DOCKED: ENDBRANCH  15  16
DOCKED: ENDBRANCH  14  15
DOCKED: ENDBRANCH  13  14
DOCKED: BRANCH  13  19
DOCKED: ATOM     19  C4  0Q4 A 125      -8.427  16.403  32.947 -0.22 -0.31    +0.241 C 
DOCKED: ATOM     20  O3  0Q4 A 125      -9.056  17.283  33.539 -0.05 +0.51    -0.271 OA
DOCKED: ATOM     21  N5  0Q4 A 125      -8.821  15.140  32.941 -0.14 +0.35    -0.346 N 
DOCKED: ATOM     22  H5  0Q4 A 125      -8.245  14.440  32.562 +0.04 -0.13    +0.163 HD
DOCKED: BRANCH  21  23
DOCKED: ATOM     23  CA5 0Q4 A 125     -10.107  14.761  33.487 -0.27 -0.19    +0.172 C 
DOCKED: ATOM     24  CB5 0Q4 A 125     -10.387  13.322  33.096 -0.41 -0.03    +0.042 C 
DOCKED: BRANCH  23  25
DOCKED: ATOM     25  C5  0Q4 A 125     -10.290  14.920  35.017 +0.77 -0.38    +0.240 C 
DOCKED: ATOM     26  O4  0Q4 A 125      -9.347  15.193  35.761 +0.12 +0.43    -0.271 OA
DOCKED: ATOM     27  N6  0Q4 A 125     -11.522  14.683  35.455 -0.10 +0.46    -0.346 N 
DOCKED: ATOM     28  H6  0Q4 A 125     -12.199  14.435  34.802 +0.08 -0.16    +0.163 HD
DOCKED: BRANCH  27  29
DOCKED: ATOM     29  CA6 0Q4 A 125     -11.903  14.693  36.861 -0.20 -0.19    +0.176 C 
DOCKED: BRANCH  29  30
DOCKED: ATOM     30  CB6 0Q4 A 125     -13.138  15.614  37.037 -0.30 -0.04    +0.035 C 
DOCKED: BRANCH  30  31
DOCKED: ATOM     31  CG6 0Q4 A 125     -14.003  15.923  35.765 -0.23 -0.00    +0.002 C 
DOCKED: BRANCH  31  32
DOCKED: ATOM     32  CD4 0Q4 A 125     -15.183  14.905  35.508 -0.23 +0.00    -0.004 C 
DOCKED: ATOM     33  CE  0Q4 A 125     -15.370  13.980  36.693 -0.41 -0.00    +0.005 C 
DOCKED: ENDBRANCH  31  32
DOCKED: ENDBRANCH  30  31
DOCKED: ENDBRANCH  29  30
DOCKED: BRANCH  29  34
DOCKED: ATOM     34  C6  0Q4 A 125     -12.275  13.242  37.212 -0.29 -0.14    +0.238 C 
DOCKED: ATOM     35  O5  0Q4 A 125     -12.213  12.335  36.331 -0.35 +0.18    -0.271 OA
DOCKED: ATOM     36  N7  0Q4 A 125     -12.664  13.037  38.388 -0.04 +0.15    -0.368 N 
DOCKED: ATOM     37  H72 0Q4 A 125     -12.714  13.767  39.098 +0.11 -0.06    +0.159 HD
DOCKED: ATOM     38  H71 0Q4 A 125     -12.911  12.075  38.621 +0.27 -0.06    +0.159 HD
DOCKED: ENDBRANCH  29  34
DOCKED: ENDBRANCH  27  29
DOCKED: ENDBRANCH  23  25
DOCKED: ENDBRANCH  21  23
DOCKED: ENDBRANCH  13  19
DOCKED: ENDBRANCH  11  13
DOCKED: ENDBRANCH   1   9
DOCKED: BRANCH   1  39
DOCKED: ATOM     39  N3  0Q4 A 125      -3.518  15.101  33.721 +0.18 +0.26    -0.387 N 
DOCKED: ATOM     40  C2  0Q4 A 125      -3.220  14.970  32.440 +0.06 -0.05    +0.081 C 
DOCKED: ATOM     41  H3  0Q4 A 125      -2.962  15.693  34.263 +0.10 -0.11    +0.159 HD
DOCKED: BRANCH  40  42
DOCKED: ATOM     42  CA2 0Q4 A 125      -2.030  15.786  31.952 -0.29 -0.08    +0.123 C 
DOCKED: BRANCH  42  43
DOCKED: ATOM     43  CB2 0Q4 A 125      -1.475  15.260  30.607 -0.28 -0.02    +0.034 C 
DOCKED: BRANCH  43  44
DOCKED: ATOM     44  CG3 0Q4 A 125      -2.014  15.980  29.339 -0.39 +0.01    -0.020 C 
DOCKED: ATOM     45  CD1 0Q4 A 125      -3.365  16.659  29.565 -0.30 -0.01    +0.009 C 
DOCKED: ATOM     46  CD2 0Q4 A 125      -1.002  17.001  28.852 -0.38 -0.01    +0.009 C 
DOCKED: ENDBRANCH  43  44
DOCKED: ENDBRANCH  42  43
DOCKED: BRANCH  42  47
DOCKED: ATOM     47  N2  0Q4 A 125      -0.940  15.966  32.893 -0.10 +0.25    -0.350 N 
DOCKED: ATOM     48  C1  0Q4 A 125      -0.457  14.946  33.579 +0.21 -0.10    +0.241 C 
DOCKED: ATOM     49  O1  0Q4 A 125      -0.801  13.797  33.332 -0.32 +0.03    -0.271 OA
DOCKED: ATOM     50  HN2 0Q4 A 125      -0.586  16.871  33.046 +0.10 -0.17    +0.163 HD
DOCKED: BRANCH  48  51
DOCKED: ATOM     51  CA1 0Q4 A 125       0.656  15.282  34.606 -0.26 -0.07    +0.180 C 
DOCKED: BRANCH  51  52
DOCKED: ATOM     52  CB1 0Q4 A 125       0.157  16.190  35.845 -0.38 -0.01    +0.009 C 
DOCKED: ATOM     53  CG1 0Q4 A 125       1.075  17.393  36.074 -0.37 -0.01    +0.012 C 
DOCKED: ATOM     54  CG2 0Q4 A 125      -1.266  16.728  35.588 -0.34 -0.01    +0.012 C 
DOCKED: ENDBRANCH  51  52
DOCKED: BRANCH  51  55
DOCKED: ATOM     55  N1  0Q4 A 125       1.824  15.894  33.970 -0.10 +0.21    -0.346 N 
DOCKED: ATOM     56  C   0Q4 A 125       2.048  15.852  32.647 -0.17 -0.16    +0.249 C 
DOCKED: ATOM     57  O   0Q4 A 125       1.284  15.272  31.852 +0.88 +0.15    -0.271 OA
DOCKED: ATOM     58  H1  0Q4 A 125       2.431  16.369  34.576 +0.09 -0.11    +0.163 HD
DOCKED: BRANCH  56  59
DOCKED: ATOM     59  CA  0Q4 A 125       3.374  16.500  32.135 -0.20 -0.20    +0.274 C 
DOCKED: BRANCH  59  60
DOCKED: ATOM     60  N   0Q4 A 125       3.128  17.947  31.850 +0.01 +0.07    -0.067 N 
DOCKED: ATOM     61  H   0Q4 A 125       3.771  18.550  32.382 +0.14 -0.27    +0.275 HD
DOCKED: ATOM     62  H2  0Q4 A 125       3.277  18.062  30.816 +0.17 -0.32    +0.275 HD
DOCKED: ATOM     63  HN3 0Q4 A 125       2.157  18.202  32.094 +0.08 -0.43    +0.275 HD
DOCKED: ENDBRANCH  59  60
DOCKED: BRANCH  59  64
DOCKED: ATOM     64  CB  0Q4 A 125       4.526  16.378  33.141 -0.31 -0.03    +0.044 C 
DOCKED: BRANCH  64  65
DOCKED: ATOM     65  CG  0Q4 A 125       5.963  16.719  32.618 -0.36 -0.01    +0.023 C 
DOCKED: BRANCH  65  66
DOCKED: ATOM     66  CD  0Q4 A 125       6.731  15.552  31.903 -0.36 -0.09    +0.138 C 
DOCKED: BRANCH  66  67
DOCKED: ATOM     67  NE  0Q4 A 125       7.002  14.382  32.749 -0.14 +0.15    -0.227 N 
DOCKED: ATOM     68  CZ  0Q4 A 125       7.819  14.381  33.805 +0.54 -0.45    +0.665 C 
DOCKED: ATOM     69  NH1 0Q4 A 125       8.434  15.499  34.152 -0.01 +0.16    -0.235 N 
DOCKED: ATOM     70  NH2 0Q4 A 125       8.120  13.237  34.439 -0.15 +0.10    -0.235 N 
DOCKED: ATOM     71 HH11 0Q4 A 125       8.283  16.338  33.632 +0.06 -0.12    +0.174 HD
DOCKED: ATOM     72 HH12 0Q4 A 125       9.049  15.508  34.943 -0.06 -0.09    +0.174 HD
DOCKED: ATOM     73 HH21 0Q4 A 125       7.734  12.370  34.130 +0.08 -0.03    +0.174 HD
DOCKED: ATOM     74 HH22 0Q4 A 125       8.738  13.260  35.227 -0.08 -0.06    +0.174 HD
DOCKED: ATOM     75  HE  0Q4 A 125       6.556  13.534  32.531 -0.46 -0.09    +0.177 HD
DOCKED: ENDBRANCH  66  67
DOCKED: ENDBRANCH  65  66
DOCKED: ENDBRANCH  64  65
DOCKED: ENDBRANCH  59  64
DOCKED: ENDBRANCH  56  59
DOCKED: ENDBRANCH  51  55
DOCKED: ENDBRANCH  48  51
DOCKED: ENDBRANCH  42  47
DOCKED: ENDBRANCH  40  42
DOCKED: ENDBRANCH   1  39
DOCKED: TORSDOF 29
DOCKED: TER
DOCKED: ENDMDL
________________________________________________________________________________


	BEGINNING GENETIC ALGORITHM DOCKING 6 of 10
Run: 6 Seed: 230894791 1854163993 [ Run 6 of 10 GA/GALS ]
Beginning LAMARCKIAN GENETIC ALGORITHM (LGA), with a maximum of 2500000 energy evaluations.

Final-Value: -19.665


	FINAL GENETIC ALGORITHM DOCKED STATE
	_______________________________________________


Detailed state:  trans -0.599 16.510 33.624 quatxyzw 0.023384 -0.005342 0.191856 0.981130 center -1.190 15.842 33.892 ntor 29 27.2740 -179.8554 -46.5002 -55.7542 -104.5453 -26.1405 -102.5039 -36.9079 -179.7828 178.5711 142.0025 -179.3734 -32.7360 -36.0721 6.9183 -11.9904 -149.4948 -5.0053 -127.6330 -173.4808 134.2363 154.5742 142.5845 -172.2458 -162.1905 153.0994 -176.9427 -130.8131 138.4369
State:	 -0.599  16.510  33.624   0.121 -0.028  0.992 22.297     27.27 -179.86  -46.50  -55.75 -104.55  -26.14 -102.50  -36.91 -179.78  178.57  142.00 -179.37  -32.74  -36.07    6.92  -11.99 -149.49   -5.01 -127.63 -173.48  134.24  154.57  142.58 -172.25 -162.19  153.10 -176.94 -130.81  138.44

DOCKED: MODEL        6
DOCKED: USER    Run = 6
DOCKED: USER    DPF = dock.dpf
DOCKED: USER  
DOCKED: USER    Estimated Free Energy of Binding    =   -5.78 kcal/mol  [=(1)+(2)+(3)-(4)]
DOCKED: USER    Estimated Inhibition Constant, Ki   =   57.61 uM (micromolar)  [Temperature = 298.15 K]
DOCKED: USER    
DOCKED: USER    (1) Final Intermolecular Energy     =  -14.43 kcal/mol
DOCKED: USER        vdW + Hbond + desolv Energy     =  -14.76 kcal/mol
DOCKED: USER        Electrostatic Energy            =   +0.32 kcal/mol
DOCKED: USER    (2) Final Total Internal Energy     =   -5.23 kcal/mol
DOCKED: USER    (3) Torsional Free Energy           =   +8.65 kcal/mol
DOCKED: USER    (4) Unbound System's Energy  [=(2)] =   -5.23 kcal/mol
DOCKED: USER    
DOCKED: USER    
DOCKED: USER    NEWDPF move lig1bai.pdbqt
DOCKED: USER    NEWDPF about -1.190000 15.842000 33.892000
DOCKED: USER    NEWDPF tran0 -0.598544 16.510002 33.623787
DOCKED: USER    NEWDPF quaternion0 0.023384 -0.005342 0.191856 0.981130
DOCKED: USER    NEWDPF axisangle0 0.120941 -0.027630 0.992275 22.296609
DOCKED: USER    NEWDPF quat0 0.120941 -0.027630 0.992275 22.296609
DOCKED: USER    NEWDPF dihe0 27.27 -179.86 -46.50 -55.75 -104.55 -26.14 -102.50 -36.91 -179.78 178.57 142.00 -179.37 -32.74 -36.07 6.92 -11.99 -149.49 -5.01 -127.63 -173.48 134.24 154.57 142.58 -172.25 -162.19 153.10 -176.94 -130.81 138.44 
DOCKED: USER  keepresnum = 1 
DOCKED: USER  
DOCKED: REMARK  29 active torsions:
DOCKED: REMARK  status: ('A' for Active; 'I' for Inactive)
DOCKED: REMARK    1  A    between atoms: N_1  and  CA_2 
DOCKED: REMARK    2  A    between atoms: CA_2  and  C_9 
DOCKED: REMARK    3  A    between atoms: CA_2  and  CB_11 
DOCKED: REMARK    4  A    between atoms: CA1_3  and  CB1_12 
DOCKED: REMARK    5  A    between atoms: CA1_3  and  C1_42 
DOCKED: REMARK    6  A    between atoms: CA1_3  and  N1_43 
DOCKED: REMARK    7  A    between atoms: CA2_4  and  CB2_13 
DOCKED: REMARK    8  A    between atoms: CA2_4  and  C2_45 
DOCKED: REMARK    9  A    between atoms: CA2_4  and  N2_46 
DOCKED: REMARK   10  A    between atoms: CA3_5  and  CB3_14 
DOCKED: REMARK   11  A    between atoms: CA3_5  and  C3_48 
DOCKED: REMARK   12  A    between atoms: CA3_5  and  N3_49 
DOCKED: REMARK   13  A    between atoms: CA4_6  and  CB4_15 
DOCKED: REMARK   14  A    between atoms: CA4_6  and  C4_51 
DOCKED: REMARK   15  A    between atoms: CA4_6  and  N4_52 
DOCKED: REMARK   16  A    between atoms: CA5_7  and  C5_54 
DOCKED: REMARK   17  A    between atoms: CA5_7  and  N5_55 
DOCKED: REMARK   18  A    between atoms: CA6_8  and  CB6_17 
DOCKED: REMARK   19  A    between atoms: CA6_8  and  C6_57 
DOCKED: REMARK   20  A    between atoms: CA6_8  and  N6_58 
DOCKED: REMARK       I    between atoms: C_9  and  N1_43 
DOCKED: REMARK   21  A    between atoms: CB_11  and  CG_18 
DOCKED: REMARK   22  A    between atoms: CB2_13  and  CG3_21 
DOCKED: REMARK   23  A    between atoms: CB3_14  and  CG4_22 
DOCKED: REMARK   24  A    between atoms: CB4_15  and  CG5_23 
DOCKED: REMARK   25  A    between atoms: CB6_17  and  CG6_24 
DOCKED: REMARK   26  A    between atoms: CG_18  and  CD_25 
DOCKED: REMARK   27  A    between atoms: CG5_23  and  CD3_30 
DOCKED: REMARK   28  A    between atoms: CG6_24  and  CD4_31 
DOCKED: REMARK   29  A    between atoms: CD_25  and  NE_35 
DOCKED: REMARK       I    between atoms: NE_35  and  CZ_38 
DOCKED: REMARK       I    between atoms: CZ_38  and  NH1_40 
DOCKED: REMARK       I    between atoms: C1_42  and  N2_46 
DOCKED: REMARK       I    between atoms: C3_48  and  N4_52 
DOCKED: REMARK       I    between atoms: C4_51  and  N5_55 
DOCKED: REMARK       I    between atoms: C5_54  and  N6_58 
DOCKED: REMARK       I    between atoms: C6_57  and  N7_59 
DOCKED: USER                              x       y       z     vdW  Elec       q    Type
DOCKED: USER                           _______ _______ _______ _____ _____    ______ ____
DOCKED: ROOT
DOCKED: ATOM      1  CA3 0Q4 A 125      -0.126  18.088  31.941 -0.29 -0.30    +0.177 C 
DOCKED: ENDROOT
DOCKED: BRANCH   1   2
DOCKED: ATOM      2  CB3 0Q4 A 125       0.154  17.809  30.435 -0.31 -0.11    +0.073 C 
DOCKED: BRANCH   2   3
DOCKED: ATOM      3  CG4 0Q4 A 125      -0.956  17.175  29.694 -0.32 +0.05    -0.056 A 
DOCKED: ATOM      4  CD1 0Q4 A 125      -1.745  17.918  28.826 -0.39 -0.01    +0.007 A 
DOCKED: ATOM      5  CE1 0Q4 A 125      -2.780  17.310  28.079 -0.11 -0.00    +0.001 A 
DOCKED: ATOM      6  CZ1 0Q4 A 125      -3.032  15.940  28.210 -0.31 -0.00    +0.000 A 
DOCKED: ATOM      7  CE2 0Q4 A 125      -2.253  15.184  29.086 -0.39 -0.00    +0.001 A 
DOCKED: ATOM      8  CD2 0Q4 A 125      -1.209  15.814  29.829 -0.23 -0.00    +0.007 A 
DOCKED: ENDBRANCH   2   3
DOCKED: ENDBRANCH   1   2
DOCKED: BRANCH   1   9
DOCKED: ATOM      9  C3  0Q4 A 125      -1.509  17.627  32.480 -0.23 -0.31    +0.241 C 
DOCKED: ATOM     10  O2  0Q4 A 125      -2.411  18.449  32.657 +0.09 +0.44    -0.271 OA
DOCKED: ATOM     11  N4  0Q4 A 125      -1.689  16.314  32.623 -0.08 +0.28    -0.346 N 
DOCKED: ATOM     12  H4  0Q4 A 125      -0.939  15.697  32.477 +0.09 -0.11    +0.163 HD
DOCKED: BRANCH  11  13
DOCKED: ATOM     13  CA4 0Q4 A 125      -2.962  15.723  33.046 -0.22 -0.12    +0.177 C 
DOCKED: BRANCH  13  14
DOCKED: ATOM     14  CB4 0Q4 A 125      -3.316  16.238  34.470 -0.22 -0.03    +0.045 C 
DOCKED: BRANCH  14  15
DOCKED: ATOM     15  CG5 0Q4 A 125      -2.368  17.235  35.106 -0.34 -0.12    +0.116 C 
DOCKED: BRANCH  15  16
DOCKED: ATOM     16  CD3 0Q4 A 125      -1.641  16.676  36.339 -0.28 -0.14    +0.172 C 
DOCKED: ATOM     17  OE1 0Q4 A 125      -0.415  16.865  36.446 +0.01 +0.58    -0.648 OA
DOCKED: ATOM     18  OE2 0Q4 A 125      -2.284  16.045  37.218 +0.01 +0.36    -0.648 OA
DOCKED: ENDBRANCH  15  16
DOCKED: ENDBRANCH  14  15
DOCKED: ENDBRANCH  13  14
DOCKED: BRANCH  13  19
DOCKED: ATOM     19  C4  0Q4 A 125      -4.148  15.957  32.105 -0.19 -0.19    +0.241 C 
DOCKED: ATOM     20  O3  0Q4 A 125      -4.583  15.069  31.369 -0.17 +0.20    -0.271 OA
DOCKED: ATOM     21  N5  0Q4 A 125      -4.566  17.209  32.019 +0.04 +0.36    -0.346 N 
DOCKED: ATOM     22  H5  0Q4 A 125      -4.124  17.919  32.535 -0.44 -0.22    +0.163 HD
DOCKED: BRANCH  21  23
DOCKED: ATOM     23  CA5 0Q4 A 125      -5.683  17.562  31.169 -0.09 -0.18    +0.172 C 
DOCKED: ATOM     24  CB5 0Q4 A 125      -5.178  17.701  29.746 -0.23 -0.03    +0.042 C 
DOCKED: BRANCH  23  25
DOCKED: ATOM     25  C5  0Q4 A 125      -6.904  16.608  31.189 -0.16 -0.23    +0.240 C 
DOCKED: ATOM     26  O4  0Q4 A 125      -7.738  16.598  30.281 -0.11 +0.28    -0.271 OA
DOCKED: ATOM     27  N6  0Q4 A 125      -7.000  15.854  32.279 -0.09 +0.32    -0.346 N 
DOCKED: ATOM     28  H6  0Q4 A 125      -6.318  15.953  32.965 +0.07 -0.15    +0.163 HD
DOCKED: BRANCH  27  29
DOCKED: ATOM     29  CA6 0Q4 A 125      -8.109  14.947  32.547 -0.30 -0.16    +0.176 C 
DOCKED: BRANCH  29  30
DOCKED: ATOM     30  CB6 0Q4 A 125      -8.014  14.465  34.017 -0.44 -0.03    +0.035 C 
DOCKED: BRANCH  30  31
DOCKED: ATOM     31  CG6 0Q4 A 125      -7.806  15.553  35.128 -0.48 -0.00    +0.002 C 
DOCKED: BRANCH  31  32
DOCKED: ATOM     32  CD4 0Q4 A 125      -6.750  15.169  36.237 -0.41 +0.00    -0.004 C 
DOCKED: ATOM     33  CE  0Q4 A 125      -6.821  16.124  37.411 -0.64 -0.00    +0.005 C 
DOCKED: ENDBRANCH  31  32
DOCKED: ENDBRANCH  30  31
DOCKED: ENDBRANCH  29  30
DOCKED: BRANCH  29  34
DOCKED: ATOM     34  C6  0Q4 A 125      -9.392  15.771  32.345 -0.18 -0.30    +0.238 C 
DOCKED: ATOM     35  O5  0Q4 A 125      -9.898  16.414  33.311 -0.18 +0.51    -0.271 OA
DOCKED: ATOM     36  N7  0Q4 A 125      -9.904  15.732  31.199 -0.06 +0.43    -0.368 N 
DOCKED: ATOM     37  H72 0Q4 A 125      -9.496  15.214  30.420 +0.04 -0.14    +0.159 HD
DOCKED: ATOM     38  H71 0Q4 A 125     -10.754  16.278  31.065 -0.06 -0.23    +0.159 HD
DOCKED: ENDBRANCH  29  34
DOCKED: ENDBRANCH  27  29
DOCKED: ENDBRANCH  23  25
DOCKED: ENDBRANCH  21  23
DOCKED: ENDBRANCH  13  19
DOCKED: ENDBRANCH  11  13
DOCKED: ENDBRANCH   1   9
DOCKED: BRANCH   1  39
DOCKED: ATOM     39  N3  0Q4 A 125       0.866  17.331  32.713 -0.07 +0.47    -0.387 N 
DOCKED: ATOM     40  C2  0Q4 A 125       1.046  16.028  32.591 -0.28 -0.06    +0.081 C 
DOCKED: ATOM     41  H3  0Q4 A 125       1.438  17.817  33.338 +0.09 -0.22    +0.159 HD
DOCKED: BRANCH  40  42
DOCKED: ATOM     42  CA2 0Q4 A 125       2.156  15.431  33.447 -0.28 -0.06    +0.123 C 
DOCKED: BRANCH  42  43
DOCKED: ATOM     43  CB2 0Q4 A 125       2.213  16.068  34.856 -0.30 -0.02    +0.034 C 
DOCKED: BRANCH  43  44
DOCKED: ATOM     44  CG3 0Q4 A 125       2.698  15.123  35.992 -0.27 +0.01    -0.020 C 
DOCKED: ATOM     45  CD1 0Q4 A 125       3.921  15.658  36.735 -0.29 -0.00    +0.009 C 
DOCKED: ATOM     46  CD2 0Q4 A 125       1.569  14.872  36.975 -0.47 -0.00    +0.009 C 
DOCKED: ENDBRANCH  43  44
DOCKED: ENDBRANCH  42  43
DOCKED: BRANCH  42  47
DOCKED: ATOM     47  N2  0Q4 A 125       3.485  15.419  32.864 -0.13 +0.22    -0.350 N 
DOCKED: ATOM     48  C1  0Q4 A 125       4.075  16.539  32.487 -0.22 -0.17    +0.241 C 
DOCKED: ATOM     49  O1  0Q4 A 125       3.591  17.631  32.759 -0.22 +0.24    -0.271 OA
DOCKED: ATOM     50  HN2 0Q4 A 125       3.933  14.556  32.715 -0.43 -0.12    +0.163 HD
DOCKED: BRANCH  48  51
DOCKED: ATOM     51  CA1 0Q4 A 125       5.462  16.385  31.811 -0.27 -0.11    +0.180 C 
DOCKED: BRANCH  51  52
DOCKED: ATOM     52  CB1 0Q4 A 125       5.459  15.425  30.513 -0.49 -0.01    +0.009 C 
DOCKED: ATOM     53  CG1 0Q4 A 125       4.896  14.038  30.833 -0.48 -0.01    +0.012 C 
DOCKED: ATOM     54  CG2 0Q4 A 125       4.597  16.032  29.388 -0.51 -0.01    +0.012 C 
DOCKED: ENDBRANCH  51  52
DOCKED: BRANCH  51  55
DOCKED: ATOM     55  N1  0Q4 A 125       6.490  15.950  32.758 -0.10 +0.22    -0.346 N 
DOCKED: ATOM     56  C   0Q4 A 125       6.207  15.448  33.972 -0.08 -0.15    +0.249 C 
DOCKED: ATOM     57  O   0Q4 A 125       5.043  15.327  34.397 -0.13 +0.16    -0.271 OA
DOCKED: ATOM     58  H1  0Q4 A 125       7.414  16.023  32.438 +0.10 -0.12    +0.163 HD
DOCKED: BRANCH  56  59
DOCKED: ATOM     59  CA  0Q4 A 125       7.422  15.089  34.886 -0.16 -0.12    +0.274 C 
DOCKED: BRANCH  59  60
DOCKED: ATOM     60  N   0Q4 A 125       7.702  13.625  34.769 -0.37 +0.03    -0.067 N 
DOCKED: ATOM     61  H   0Q4 A 125       8.673  13.451  34.477 -0.38 -0.17    +0.275 HD
DOCKED: ATOM     62  H2  0Q4 A 125       7.520  13.224  35.723 +0.11 -0.06    +0.275 HD
DOCKED: ATOM     63  HN3 0Q4 A 125       7.066  13.192  34.080 -0.30 -0.12    +0.275 HD
DOCKED: ENDBRANCH  59  60
DOCKED: BRANCH  59  64
DOCKED: ATOM     64  CB  0Q4 A 125       8.692  15.872  34.528 -0.15 -0.03    +0.044 C 
DOCKED: BRANCH  64  65
DOCKED: ATOM     65  CG  0Q4 A 125       8.624  17.432  34.659 -0.30 -0.01    +0.023 C 
DOCKED: BRANCH  65  66
DOCKED: ATOM     66  CD  0Q4 A 125       7.441  18.135  33.904 -0.09 -0.04    +0.138 C 
DOCKED: BRANCH  66  67
DOCKED: ATOM     67  NE  0Q4 A 125       6.189  18.226  34.667 -0.18 +0.10    -0.227 N 
DOCKED: ATOM     68  CZ  0Q4 A 125       6.114  18.338  35.995 +0.06 -0.18    +0.665 C 
DOCKED: ATOM     69  NH1 0Q4 A 125       7.228  18.391  36.706 -0.07 -0.08    -0.235 N 
DOCKED: ATOM     70  NH2 0Q4 A 125       4.931  18.273  36.625 -0.10 +0.11    -0.235 N 
DOCKED: ATOM     71 HH11 0Q4 A 125       8.116  18.352  36.252 +0.05 +0.07    +0.174 HD
DOCKED: ATOM     72 HH12 0Q4 A 125       7.183  18.476  37.703 +0.09 +0.15    +0.174 HD
DOCKED: ATOM     73 HH21 0Q4 A 125       4.088  18.142  36.107 -0.31 -0.14    +0.174 HD
DOCKED: ATOM     74 HH22 0Q4 A 125       4.900  18.358  37.623 +0.07 -0.04    +0.174 HD
DOCKED: ATOM     75  HE  0Q4 A 125       5.339  18.201  34.174 -0.34 -0.13    +0.177 HD
DOCKED: ENDBRANCH  66  67
DOCKED: ENDBRANCH  65  66
DOCKED: ENDBRANCH  64  65
DOCKED: ENDBRANCH  59  64
DOCKED: ENDBRANCH  56  59
DOCKED: ENDBRANCH  51  55
DOCKED: ENDBRANCH  48  51
DOCKED: ENDBRANCH  42  47
DOCKED: ENDBRANCH  40  42
DOCKED: ENDBRANCH   1  39
DOCKED: TORSDOF 29
DOCKED: TER
DOCKED: ENDMDL
________________________________________________________________________________


	BEGINNING GENETIC ALGORITHM DOCKING 7 of 10
Run: 7 Seed: 583568027 1305149522 [ Run 7 of 10 GA/GALS ]
Beginning LAMARCKIAN GENETIC ALGORITHM (LGA), with a maximum of 2500000 energy evaluations.

Final-Value: -18.708


	FINAL GENETIC ALGORITHM DOCKED STATE
	_______________________________________________


Detailed state:  trans -1.311 16.607 34.586 quatxyzw -0.042004 -0.060991 -0.198528 -0.977293 center -1.190 15.842 33.892 ntor 29 -148.5167 -47.4957 -180.0000 -12.8763 149.3112 -76.7709 -31.1165 125.1541 -115.8907 9.0060 158.9893 -165.0816 -2.9525 -146.4950 -82.9838 -179.5836 -6.7062 -61.5411 -172.3370 102.9814 165.3650 -60.7934 91.5327 79.1728 -141.1591 -46.2025 171.4229 -98.0455 150.9135
State:	 -1.311  16.607  34.586  -0.198 -0.288 -0.937 -24.466   -148.52  -47.50 -180.00  -12.88  149.31  -76.77  -31.12  125.15 -115.89    9.01  158.99 -165.08   -2.95 -146.49  -82.98 -179.58   -6.71  -61.54 -172.34  102.98  165.36  -60.79   91.53   79.17 -141.16  -46.20  171.42  -98.05  150.91

DOCKED: MODEL        7
DOCKED: USER    Run = 7
DOCKED: USER    DPF = dock.dpf
DOCKED: USER  
DOCKED: USER    Estimated Free Energy of Binding    =   -4.95 kcal/mol  [=(1)+(2)+(3)-(4)]
DOCKED: USER    Estimated Inhibition Constant, Ki   =  236.99 uM (micromolar)  [Temperature = 298.15 K]
DOCKED: USER    
DOCKED: USER    (1) Final Intermolecular Energy     =  -13.60 kcal/mol
DOCKED: USER        vdW + Hbond + desolv Energy     =  -13.98 kcal/mol
DOCKED: USER        Electrostatic Energy            =   +0.38 kcal/mol
DOCKED: USER    (2) Final Total Internal Energy     =   -5.11 kcal/mol
DOCKED: USER    (3) Torsional Free Energy           =   +8.65 kcal/mol
DOCKED: USER    (4) Unbound System's Energy  [=(2)] =   -5.11 kcal/mol
DOCKED: USER    
DOCKED: USER    
DOCKED: USER    NEWDPF move lig1bai.pdbqt
DOCKED: USER    NEWDPF about -1.190000 15.842000 33.892000
DOCKED: USER    NEWDPF tran0 -1.311336 16.606689 34.585919
DOCKED: USER    NEWDPF quaternion0 -0.042004 -0.060991 -0.198528 -0.977293
DOCKED: USER    NEWDPF axisangle0 -0.198236 -0.287841 -0.936937 -24.466377
DOCKED: USER    NEWDPF quat0 -0.198236 -0.287841 -0.936937 -24.466377
DOCKED: USER    NEWDPF dihe0 -148.52 -47.50 -180.00 -12.88 149.31 -76.77 -31.12 125.15 -115.89 9.01 158.99 -165.08 -2.95 -146.49 -82.98 -179.58 -6.71 -61.54 -172.34 102.98 165.36 -60.79 91.53 79.17 -141.16 -46.20 171.42 -98.05 150.91 
DOCKED: USER  keepresnum = 1 
DOCKED: USER  
DOCKED: REMARK  29 active torsions:
DOCKED: REMARK  status: ('A' for Active; 'I' for Inactive)
DOCKED: REMARK    1  A    between atoms: N_1  and  CA_2 
DOCKED: REMARK    2  A    between atoms: CA_2  and  C_9 
DOCKED: REMARK    3  A    between atoms: CA_2  and  CB_11 
DOCKED: REMARK    4  A    between atoms: CA1_3  and  CB1_12 
DOCKED: REMARK    5  A    between atoms: CA1_3  and  C1_42 
DOCKED: REMARK    6  A    between atoms: CA1_3  and  N1_43 
DOCKED: REMARK    7  A    between atoms: CA2_4  and  CB2_13 
DOCKED: REMARK    8  A    between atoms: CA2_4  and  C2_45 
DOCKED: REMARK    9  A    between atoms: CA2_4  and  N2_46 
DOCKED: REMARK   10  A    between atoms: CA3_5  and  CB3_14 
DOCKED: REMARK   11  A    between atoms: CA3_5  and  C3_48 
DOCKED: REMARK   12  A    between atoms: CA3_5  and  N3_49 
DOCKED: REMARK   13  A    between atoms: CA4_6  and  CB4_15 
DOCKED: REMARK   14  A    between atoms: CA4_6  and  C4_51 
DOCKED: REMARK   15  A    between atoms: CA4_6  and  N4_52 
DOCKED: REMARK   16  A    between atoms: CA5_7  and  C5_54 
DOCKED: REMARK   17  A    between atoms: CA5_7  and  N5_55 
DOCKED: REMARK   18  A    between atoms: CA6_8  and  CB6_17 
DOCKED: REMARK   19  A    between atoms: CA6_8  and  C6_57 
DOCKED: REMARK   20  A    between atoms: CA6_8  and  N6_58 
DOCKED: REMARK       I    between atoms: C_9  and  N1_43 
DOCKED: REMARK   21  A    between atoms: CB_11  and  CG_18 
DOCKED: REMARK   22  A    between atoms: CB2_13  and  CG3_21 
DOCKED: REMARK   23  A    between atoms: CB3_14  and  CG4_22 
DOCKED: REMARK   24  A    between atoms: CB4_15  and  CG5_23 
DOCKED: REMARK   25  A    between atoms: CB6_17  and  CG6_24 
DOCKED: REMARK   26  A    between atoms: CG_18  and  CD_25 
DOCKED: REMARK   27  A    between atoms: CG5_23  and  CD3_30 
DOCKED: REMARK   28  A    between atoms: CG6_24  and  CD4_31 
DOCKED: REMARK   29  A    between atoms: CD_25  and  NE_35 
DOCKED: REMARK       I    between atoms: NE_35  and  CZ_38 
DOCKED: REMARK       I    between atoms: CZ_38  and  NH1_40 
DOCKED: REMARK       I    between atoms: C1_42  and  N2_46 
DOCKED: REMARK       I    between atoms: C3_48  and  N4_52 
DOCKED: REMARK       I    between atoms: C4_51  and  N5_55 
DOCKED: REMARK       I    between atoms: C5_54  and  N6_58 
DOCKED: REMARK       I    between atoms: C6_57  and  N7_59 
DOCKED: USER                              x       y       z     vdW  Elec       q    Type
DOCKED: USER                           _______ _______ _______ _____ _____    ______ ____
DOCKED: ROOT
DOCKED: ATOM      1  CA3 0Q4 A 125      -0.612  18.073  32.881 -0.32 -0.30    +0.177 C 
DOCKED: ENDROOT
DOCKED: BRANCH   1   2
DOCKED: ATOM      2  CB3 0Q4 A 125      -0.153  17.697  31.440 -0.34 -0.11    +0.073 C 
DOCKED: BRANCH   2   3
DOCKED: ATOM      3  CG4 0Q4 A 125      -1.223  17.685  30.421 -0.33 +0.07    -0.056 A 
DOCKED: ATOM      4  CD1 0Q4 A 125      -1.174  18.544  29.332 -0.43 -0.01    +0.007 A 
DOCKED: ATOM      5  CE1 0Q4 A 125      -2.170  18.508  28.329 -0.06 -0.00    +0.001 A 
DOCKED: ATOM      6  CZ1 0Q4 A 125      -3.233  17.603  28.423 -0.29 -0.00    +0.000 A 
DOCKED: ATOM      7  CE2 0Q4 A 125      -3.299  16.741  29.517 -0.26 -0.00    +0.001 A 
DOCKED: ATOM      8  CD2 0Q4 A 125      -2.283  16.788  30.519 -0.27 -0.01    +0.007 A 
DOCKED: ENDBRANCH   2   3
DOCKED: ENDBRANCH   1   2
DOCKED: BRANCH   1   9
DOCKED: ATOM      9  C3  0Q4 A 125      -2.057  17.656  33.272 -0.25 -0.31    +0.241 C 
DOCKED: ATOM     10  O2  0Q4 A 125      -2.912  18.517  33.495 -0.06 +0.42    -0.271 OA
DOCKED: ATOM     11  N4  0Q4 A 125      -2.336  16.353  33.239 -0.09 +0.29    -0.346 N 
DOCKED: ATOM     12  H4  0Q4 A 125      -1.621  15.704  33.064 +0.09 -0.11    +0.163 HD
DOCKED: BRANCH  11  13
DOCKED: ATOM     13  CA4 0Q4 A 125      -3.672  15.814  33.507 -0.23 -0.13    +0.177 C 
DOCKED: BRANCH  13  14
DOCKED: ATOM     14  CB4 0Q4 A 125      -4.309  16.591  34.694 -0.38 -0.03    +0.045 C 
DOCKED: BRANCH  14  15
DOCKED: ATOM     15  CG5 0Q4 A 125      -5.561  16.006  35.317 -0.38 -0.08    +0.116 C 
DOCKED: BRANCH  15  16
DOCKED: ATOM     16  CD3 0Q4 A 125      -6.322  17.009  36.197 -0.46 -0.14    +0.172 C 
DOCKED: ATOM     17  OE1 0Q4 A 125      -6.082  17.035  37.418 -0.06 +0.47    -0.648 OA
DOCKED: ATOM     18  OE2 0Q4 A 125      -7.167  17.788  35.681 -0.66 +0.58    -0.648 OA
DOCKED: ENDBRANCH  15  16
DOCKED: ENDBRANCH  14  15
DOCKED: ENDBRANCH  13  14
DOCKED: BRANCH  13  19
DOCKED: ATOM     19  C4  0Q4 A 125      -4.638  15.813  32.317 -0.17 -0.20    +0.241 C 
DOCKED: ATOM     20  O3  0Q4 A 125      -5.621  16.556  32.273 -0.17 +0.24    -0.271 OA
DOCKED: ATOM     21  N5  0Q4 A 125      -4.440  14.856  31.426 +0.01 +0.25    -0.346 N 
DOCKED: ATOM     22  H5  0Q4 A 125      -3.713  14.205  31.547 -0.11 -0.08    +0.163 HD
DOCKED: BRANCH  21  23
DOCKED: ATOM     23  CA5 0Q4 A 125      -5.279  14.748  30.252 -0.22 -0.11    +0.172 C 
DOCKED: ATOM     24  CB5 0Q4 A 125      -5.062  13.381  29.632 -0.35 -0.02    +0.042 C 
DOCKED: BRANCH  23  25
DOCKED: ATOM     25  C5  0Q4 A 125      -6.797  14.983  30.456 -0.19 -0.17    +0.240 C 
DOCKED: ATOM     26  O4  0Q4 A 125      -7.527  15.365  29.539 -0.10 +0.18    -0.271 OA
DOCKED: ATOM     27  N6  0Q4 A 125      -7.225  14.793  31.700 -0.12 +0.30    -0.346 N 
DOCKED: ATOM     28  H6  0Q4 A 125      -6.573  14.529  32.372 -0.44 -0.17    +0.163 HD
DOCKED: BRANCH  27  29
DOCKED: ATOM     29  CA6 0Q4 A 125      -8.593  15.036  32.137 -0.27 -0.16    +0.176 C 
DOCKED: BRANCH  29  30
DOCKED: ATOM     30  CB6 0Q4 A 125      -9.337  13.678  32.226 -0.31 -0.02    +0.035 C 
DOCKED: BRANCH  30  31
DOCKED: ATOM     31  CG6 0Q4 A 125      -9.922  13.259  33.621 -0.41 -0.00    +0.002 C 
DOCKED: BRANCH  31  32
DOCKED: ATOM     32  CD4 0Q4 A 125     -11.398  13.750  33.890 -0.38 +0.00    -0.004 C 
DOCKED: ATOM     33  CE  0Q4 A 125     -12.071  14.180  32.602 -0.22 -0.00    +0.005 C 
DOCKED: ENDBRANCH  31  32
DOCKED: ENDBRANCH  30  31
DOCKED: ENDBRANCH  29  30
DOCKED: BRANCH  29  34
DOCKED: ATOM     34  C6  0Q4 A 125      -8.488  15.670  33.534 -0.26 -0.28    +0.238 C 
DOCKED: ATOM     35  O5  0Q4 A 125      -8.141  14.971  34.530 -0.30 +0.26    -0.271 OA
DOCKED: ATOM     36  N7  0Q4 A 125      -8.796  16.885  33.618 -0.09 +0.62    -0.368 N 
DOCKED: ATOM     37  H72 0Q4 A 125      -9.075  17.449  32.815 -0.04 -0.31    +0.159 HD
DOCKED: ATOM     38  H71 0Q4 A 125      -8.726  17.306  34.544 -0.36 -0.33    +0.159 HD
DOCKED: ENDBRANCH  29  34
DOCKED: ENDBRANCH  27  29
DOCKED: ENDBRANCH  23  25
DOCKED: ENDBRANCH  21  23
DOCKED: ENDBRANCH  13  19
DOCKED: ENDBRANCH  11  13
DOCKED: ENDBRANCH   1   9
DOCKED: BRANCH   1  39
DOCKED: ATOM     39  N3  0Q4 A 125       0.266  17.358  33.814 -0.06 +0.50    -0.387 N 
DOCKED: ATOM     40  C2  0Q4 A 125       0.628  16.097  33.656 -0.30 -0.06    +0.081 C 
DOCKED: ATOM     41  H3  0Q4 A 125       0.618  17.843  34.585 -0.01 -0.25    +0.159 HD
DOCKED: BRANCH  40  42
DOCKED: ATOM     42  CA2 0Q4 A 125       1.582  15.547  34.708 -0.29 -0.06    +0.123 C 
DOCKED: BRANCH  42  43
DOCKED: ATOM     43  CB2 0Q4 A 125       0.884  15.333  36.074 -0.39 -0.01    +0.034 C 
DOCKED: BRANCH  43  44
DOCKED: ATOM     44  CG3 0Q4 A 125       0.056  16.543  36.591 -0.43 +0.01    -0.020 C 
DOCKED: ATOM     45  CD1 0Q4 A 125      -0.885  16.177  37.739 -0.48 -0.00    +0.009 C 
DOCKED: ATOM     46  CD2 0Q4 A 125       0.986  17.660  37.025 -0.43 -0.01    +0.009 C 
DOCKED: ENDBRANCH  43  44
DOCKED: ENDBRANCH  42  43
DOCKED: BRANCH  42  47
DOCKED: ATOM     47  N2  0Q4 A 125       2.820  16.277  34.903 -0.08 +0.22    -0.350 N 
DOCKED: ATOM     48  C1  0Q4 A 125       3.961  15.642  35.109 -0.17 -0.12    +0.241 C 
DOCKED: ATOM     49  O1  0Q4 A 125       4.040  14.427  34.984 +0.31 +0.12    -0.271 OA
DOCKED: ATOM     50  HN2 0Q4 A 125       2.798  17.260  34.921 +0.07 -0.14    +0.163 HD
DOCKED: BRANCH  48  51
DOCKED: ATOM     51  CA1 0Q4 A 125       5.199  16.536  35.378 -0.15 -0.08    +0.180 C 
DOCKED: BRANCH  51  52
DOCKED: ATOM     52  CB1 0Q4 A 125       5.435  17.685  34.269 -0.18 -0.01    +0.009 C 
DOCKED: ATOM     53  CG1 0Q4 A 125       6.865  18.229  34.309 -0.33 -0.00    +0.012 C 
DOCKED: ATOM     54  CG2 0Q4 A 125       5.182  17.134  32.851 -0.34 -0.01    +0.012 C 
DOCKED: ENDBRANCH  51  52
DOCKED: BRANCH  51  55
DOCKED: ATOM     55  N1  0Q4 A 125       6.419  15.746  35.554 -0.04 +0.12    -0.346 N 
DOCKED: ATOM     56  C   0Q4 A 125       6.443  14.556  36.175 -0.16 -0.07    +0.249 C 
DOCKED: ATOM     57  O   0Q4 A 125       5.425  14.033  36.668 -0.22 +0.07    -0.271 OA
DOCKED: ATOM     58  H1  0Q4 A 125       7.231  16.133  35.160 +0.08 -0.06    +0.163 HD
DOCKED: BRANCH  56  59
DOCKED: ATOM     59  CA  0Q4 A 125       7.838  13.871  36.334 -0.18 -0.06    +0.274 C 
DOCKED: BRANCH  59  60
DOCKED: ATOM     60  N   0Q4 A 125       8.353  13.500  34.980 -0.29 +0.03    -0.067 N 
DOCKED: ATOM     61  H   0Q4 A 125       9.211  12.934  35.047 -0.13 -0.08    +0.275 HD
DOCKED: ATOM     62  H2  0Q4 A 125       7.580  12.955  34.522 +0.02 -0.08    +0.275 HD
DOCKED: ATOM     63  HN3 0Q4 A 125       8.558  14.348  34.429 -0.45 -0.20    +0.275 HD
DOCKED: ENDBRANCH  59  60
DOCKED: BRANCH  59  64
DOCKED: ATOM     64  CB  0Q4 A 125       8.867  14.767  37.033 -0.17 -0.00    +0.044 C 
DOCKED: BRANCH  64  65
DOCKED: ATOM     65  CG  0Q4 A 125       8.353  16.142  37.582 +0.07 +0.01    +0.023 C 
DOCKED: BRANCH  65  66
DOCKED: ATOM     66  CD  0Q4 A 125       7.811  16.136  39.055 +0.14 +0.06    +0.138 C 
DOCKED: BRANCH  66  67
DOCKED: ATOM     67  NE  0Q4 A 125       6.434  15.647  39.203 -0.13 -0.01    -0.227 N 
DOCKED: ATOM     68  CZ  0Q4 A 125       5.339  16.367  38.944 -0.00 -0.03    +0.665 C 
DOCKED: ATOM     69  NH1 0Q4 A 125       5.467  17.608  38.505 -0.19 -0.01    -0.235 N 
DOCKED: ATOM     70  NH2 0Q4 A 125       4.120  15.893  39.240 -0.22 +0.04    -0.235 N 
DOCKED: ATOM     71 HH11 0Q4 A 125       6.374  18.000  38.365 +0.05 +0.08    +0.174 HD
DOCKED: ATOM     72 HH12 0Q4 A 125       4.652  18.156  38.308 +0.09 -0.03    +0.174 HD
DOCKED: ATOM     73 HH21 0Q4 A 125       4.013  14.992  39.657 +0.08 -0.02    +0.174 HD
DOCKED: ATOM     74 HH22 0Q4 A 125       3.313  16.452  39.039 +0.09 -0.04    +0.174 HD
DOCKED: ATOM     75  HE  0Q4 A 125       6.296  14.726  39.517 +0.06 -0.01    +0.177 HD
DOCKED: ENDBRANCH  66  67
DOCKED: ENDBRANCH  65  66
DOCKED: ENDBRANCH  64  65
DOCKED: ENDBRANCH  59  64
DOCKED: ENDBRANCH  56  59
DOCKED: ENDBRANCH  51  55
DOCKED: ENDBRANCH  48  51
DOCKED: ENDBRANCH  42  47
DOCKED: ENDBRANCH  40  42
DOCKED: ENDBRANCH   1  39
DOCKED: TORSDOF 29
DOCKED: TER
DOCKED: ENDMDL
________________________________________________________________________________


	BEGINNING GENETIC ALGORITHM DOCKING 8 of 10
Run: 8 Seed: 161813709 1692799835 [ Run 8 of 10 GA/GALS ]
Beginning LAMARCKIAN GENETIC ALGORITHM (LGA), with a maximum of 2500000 energy evaluations.

Final-Value: -20.918


	FINAL GENETIC ALGORITHM DOCKED STATE
	_______________________________________________


Detailed state:  trans -2.437 17.194 34.028 quatxyzw 0.055084 0.887288 0.389245 0.241194 center -1.190 15.842 33.892 ntor 29 65.5366 179.9962 -38.0981 178.4862 -92.8527 -178.2495 27.6190 101.2125 161.5606 2.3609 140.7631 179.9090 35.5105 -179.9235 -136.7986 -103.6225 151.1607 157.9071 -14.4425 67.7319 43.0762 111.1485 -47.7531 82.7225 180.0000 -98.0570 172.1185 179.4603 63.5445
State:	 -2.437  17.194  34.028   0.057  0.914  0.401 152.086     65.54  180.00  -38.10  178.49  -92.85 -178.25   27.62  101.21  161.56    2.36  140.76  179.91   35.51 -179.92 -136.80 -103.62  151.16  157.91  -14.44   67.73   43.08  111.15  -47.75   82.72  180.00  -98.06  172.12  179.46   63.54

DOCKED: MODEL        8
DOCKED: USER    Run = 8
DOCKED: USER    DPF = dock.dpf
DOCKED: USER  
DOCKED: USER    Estimated Free Energy of Binding    =   -6.69 kcal/mol  [=(1)+(2)+(3)-(4)]
DOCKED: USER    Estimated Inhibition Constant, Ki   =   12.52 uM (micromolar)  [Temperature = 298.15 K]
DOCKED: USER    
DOCKED: USER    (1) Final Intermolecular Energy     =  -15.34 kcal/mol
DOCKED: USER        vdW + Hbond + desolv Energy     =  -13.97 kcal/mol
DOCKED: USER        Electrostatic Energy            =   -1.37 kcal/mol
DOCKED: USER    (2) Final Total Internal Energy     =   -5.58 kcal/mol
DOCKED: USER    (3) Torsional Free Energy           =   +8.65 kcal/mol
DOCKED: USER    (4) Unbound System's Energy  [=(2)] =   -5.58 kcal/mol
DOCKED: USER    
DOCKED: USER    
DOCKED: USER    NEWDPF move lig1bai.pdbqt
DOCKED: USER    NEWDPF about -1.190000 15.842000 33.892000
DOCKED: USER    NEWDPF tran0 -2.437497 17.194279 34.028070
DOCKED: USER    NEWDPF quaternion0 0.055084 0.887288 0.389245 0.241194
DOCKED: USER    NEWDPF axisangle0 0.056760 0.914280 0.401086 152.085943
DOCKED: USER    NEWDPF quat0 0.056760 0.914280 0.401086 152.085943
DOCKED: USER    NEWDPF dihe0 65.54 180.00 -38.10 178.49 -92.85 -178.25 27.62 101.21 161.56 2.36 140.76 179.91 35.51 -179.92 -136.80 -103.62 151.16 157.91 -14.44 67.73 43.08 111.15 -47.75 82.72 180.00 -98.06 172.12 179.46 63.54 
DOCKED: USER  keepresnum = 1 
DOCKED: USER  
DOCKED: REMARK  29 active torsions:
DOCKED: REMARK  status: ('A' for Active; 'I' for Inactive)
DOCKED: REMARK    1  A    between atoms: N_1  and  CA_2 
DOCKED: REMARK    2  A    between atoms: CA_2  and  C_9 
DOCKED: REMARK    3  A    between atoms: CA_2  and  CB_11 
DOCKED: REMARK    4  A    between atoms: CA1_3  and  CB1_12 
DOCKED: REMARK    5  A    between atoms: CA1_3  and  C1_42 
DOCKED: REMARK    6  A    between atoms: CA1_3  and  N1_43 
DOCKED: REMARK    7  A    between atoms: CA2_4  and  CB2_13 
DOCKED: REMARK    8  A    between atoms: CA2_4  and  C2_45 
DOCKED: REMARK    9  A    between atoms: CA2_4  and  N2_46 
DOCKED: REMARK   10  A    between atoms: CA3_5  and  CB3_14 
DOCKED: REMARK   11  A    between atoms: CA3_5  and  C3_48 
DOCKED: REMARK   12  A    between atoms: CA3_5  and  N3_49 
DOCKED: REMARK   13  A    between atoms: CA4_6  and  CB4_15 
DOCKED: REMARK   14  A    between atoms: CA4_6  and  C4_51 
DOCKED: REMARK   15  A    between atoms: CA4_6  and  N4_52 
DOCKED: REMARK   16  A    between atoms: CA5_7  and  C5_54 
DOCKED: REMARK   17  A    between atoms: CA5_7  and  N5_55 
DOCKED: REMARK   18  A    between atoms: CA6_8  and  CB6_17 
DOCKED: REMARK   19  A    between atoms: CA6_8  and  C6_57 
DOCKED: REMARK   20  A    between atoms: CA6_8  and  N6_58 
DOCKED: REMARK       I    between atoms: C_9  and  N1_43 
DOCKED: REMARK   21  A    between atoms: CB_11  and  CG_18 
DOCKED: REMARK   22  A    between atoms: CB2_13  and  CG3_21 
DOCKED: REMARK   23  A    between atoms: CB3_14  and  CG4_22 
DOCKED: REMARK   24  A    between atoms: CB4_15  and  CG5_23 
DOCKED: REMARK   25  A    between atoms: CB6_17  and  CG6_24 
DOCKED: REMARK   26  A    between atoms: CG_18  and  CD_25 
DOCKED: REMARK   27  A    between atoms: CG5_23  and  CD3_30 
DOCKED: REMARK   28  A    between atoms: CG6_24  and  CD4_31 
DOCKED: REMARK   29  A    between atoms: CD_25  and  NE_35 
DOCKED: REMARK       I    between atoms: NE_35  and  CZ_38 
DOCKED: REMARK       I    between atoms: CZ_38  and  NH1_40 
DOCKED: REMARK       I    between atoms: C1_42  and  N2_46 
DOCKED: REMARK       I    between atoms: C3_48  and  N4_52 
DOCKED: REMARK       I    between atoms: C4_51  and  N5_55 
DOCKED: REMARK       I    between atoms: C5_54  and  N6_58 
DOCKED: REMARK       I    between atoms: C6_57  and  N7_59 
DOCKED: USER                              x       y       z     vdW  Elec       q    Type
DOCKED: USER                           _______ _______ _______ _____ _____    ______ ____
DOCKED: ROOT
DOCKED: ATOM      1  CA3 0Q4 A 125      -1.195  17.247  36.027 -0.30 -0.20    +0.177 C 
DOCKED: ENDROOT
DOCKED: BRANCH   1   2
DOCKED: ATOM      2  CB3 0Q4 A 125      -0.957  16.073  37.024 -0.32 -0.04    +0.073 C 
DOCKED: BRANCH   2   3
DOCKED: ATOM      3  CG4 0Q4 A 125       0.451  15.848  37.411 -0.41 +0.03    -0.056 A 
DOCKED: ATOM      4  CD1 0Q4 A 125       0.921  16.264  38.649 -0.51 -0.00    +0.007 A 
DOCKED: ATOM      5  CE1 0Q4 A 125       2.255  16.013  39.045 -0.44 -0.00    +0.001 A 
DOCKED: ATOM      6  CZ1 0Q4 A 125       3.131  15.343  38.184 -0.25 -0.00    +0.000 A 
DOCKED: ATOM      7  CE2 0Q4 A 125       2.674  14.929  36.933 -0.36 -0.00    +0.001 A 
DOCKED: ATOM      8  CD2 0Q4 A 125       1.323  15.187  36.551 -0.40 -0.00    +0.007 A 
DOCKED: ENDBRANCH   2   3
DOCKED: ENDBRANCH   1   2
DOCKED: BRANCH   1   9
DOCKED: ATOM      9  C3  0Q4 A 125      -0.689  17.026  34.574 -0.20 -0.27    +0.241 C 
DOCKED: ATOM     10  O2  0Q4 A 125       0.240  17.706  34.131 -0.19 +0.41    -0.271 OA
DOCKED: ATOM     11  N4  0Q4 A 125      -1.228  16.010  33.899 -0.01 +0.25    -0.346 N 
DOCKED: ATOM     12  H4  0Q4 A 125      -1.970  15.501  34.291 +0.17 -0.10    +0.163 HD
DOCKED: BRANCH  11  13
DOCKED: ATOM     13  CA4 0Q4 A 125      -0.799  15.631  32.550 -0.28 -0.11    +0.177 C 
DOCKED: BRANCH  13  14
DOCKED: ATOM     14  CB4 0Q4 A 125      -1.450  16.592  31.517 -0.31 -0.04    +0.045 C 
DOCKED: BRANCH  14  15
DOCKED: ATOM     15  CG5 0Q4 A 125      -1.239  16.282  30.048 -0.30 -0.08    +0.116 C 
DOCKED: BRANCH  15  16
DOCKED: ATOM     16  CD3 0Q4 A 125      -2.380  15.455  29.436 -0.31 -0.09    +0.172 C 
DOCKED: ATOM     17  OE1 0Q4 A 125      -2.842  15.800  28.333 +0.01 +0.29    -0.648 OA
DOCKED: ATOM     18  OE2 0Q4 A 125      -2.827  14.447  30.046 -0.02 +0.26    -0.648 OA
DOCKED: ENDBRANCH  15  16
DOCKED: ENDBRANCH  14  15
DOCKED: ENDBRANCH  13  14
DOCKED: BRANCH  13  19
DOCKED: ATOM     19  C4  0Q4 A 125       0.716  15.582  32.324 -0.06 -0.15    +0.241 C 
DOCKED: ATOM     20  O3  0Q4 A 125       1.446  14.815  32.955 -0.19 +0.11    -0.271 OA
DOCKED: ATOM     21  N5  0Q4 A 125       1.202  16.521  31.529 -0.10 +0.31    -0.346 N 
DOCKED: ATOM     22  H5  0Q4 A 125       0.606  17.191  31.128 +0.08 -0.20    +0.163 HD
DOCKED: BRANCH  21  23
DOCKED: ATOM     23  CA5 0Q4 A 125       2.616  16.581  31.228 -0.27 -0.14    +0.172 C 
DOCKED: ATOM     24  CB5 0Q4 A 125       2.801  17.387  29.957 -0.37 -0.04    +0.042 C 
DOCKED: BRANCH  23  25
DOCKED: ATOM     25  C5  0Q4 A 125       3.540  17.151  32.334 -0.21 -0.20    +0.240 C 
DOCKED: ATOM     26  O4  0Q4 A 125       3.275  18.196  32.931 -0.20 +0.30    -0.271 OA
DOCKED: ATOM     27  N6  0Q4 A 125       4.654  16.455  32.537 -0.11 +0.23    -0.346 N 
DOCKED: ATOM     28  H6  0Q4 A 125       4.803  15.662  31.994 +0.07 -0.10    +0.163 HD
DOCKED: BRANCH  27  29
DOCKED: ATOM     29  CA6 0Q4 A 125       5.704  16.851  33.467 -0.23 -0.10    +0.176 C 
DOCKED: BRANCH  29  30
DOCKED: ATOM     30  CB6 0Q4 A 125       5.052  17.243  34.818 -0.21 -0.02    +0.035 C 
DOCKED: BRANCH  30  31
DOCKED: ATOM     31  CG6 0Q4 A 125       6.005  17.684  35.984 -0.28 -0.00    +0.002 C 
DOCKED: BRANCH  31  32
DOCKED: ATOM     32  CD4 0Q4 A 125       5.767  16.928  37.350 -0.25 +0.00    -0.004 C 
DOCKED: ATOM     33  CE  0Q4 A 125       5.637  17.907  38.498 -0.33 +0.00    +0.005 C 
DOCKED: ENDBRANCH  31  32
DOCKED: ENDBRANCH  30  31
DOCKED: ENDBRANCH  29  30
DOCKED: BRANCH  29  34
DOCKED: ATOM     34  C6  0Q4 A 125       6.597  15.613  33.653 -0.18 -0.14    +0.238 C 
DOCKED: ATOM     35  O5  0Q4 A 125       6.353  14.780  34.574 -0.15 +0.15    -0.271 OA
DOCKED: ATOM     36  N7  0Q4 A 125       7.576  15.510  32.872 -0.12 +0.27    -0.368 N 
DOCKED: ATOM     37  H72 0Q4 A 125       7.773  16.181  32.130 +0.09 -0.14    +0.159 HD
DOCKED: ATOM     38  H71 0Q4 A 125       8.168  14.689  32.996 -0.44 -0.15    +0.159 HD
DOCKED: ENDBRANCH  29  34
DOCKED: ENDBRANCH  27  29
DOCKED: ENDBRANCH  23  25
DOCKED: ENDBRANCH  21  23
DOCKED: ENDBRANCH  13  19
DOCKED: ENDBRANCH  11  13
DOCKED: ENDBRANCH   1   9
DOCKED: BRANCH   1  39
DOCKED: ATOM     39  N3  0Q4 A 125      -2.646  17.429  35.912 +0.01 +0.37    -0.387 N 
DOCKED: ATOM     40  C2  0Q4 A 125      -3.283  17.506  34.757 -0.38 -0.08    +0.081 C 
DOCKED: ATOM     41  H3  0Q4 A 125      -3.174  17.478  36.732 +0.33 -0.13    +0.159 HD
DOCKED: BRANCH  40  42
DOCKED: ATOM     42  CA2 0Q4 A 125      -4.796  17.650  34.846 -0.23 -0.10    +0.123 C 
DOCKED: BRANCH  42  43
DOCKED: ATOM     43  CB2 0Q4 A 125      -5.322  17.413  36.283 -0.33 -0.03    +0.034 C 
DOCKED: BRANCH  43  44
DOCKED: ATOM     44  CG3 0Q4 A 125      -5.310  15.933  36.757 -0.51 +0.01    -0.020 C 
DOCKED: ATOM     45  CD1 0Q4 A 125      -4.845  14.960  35.674 -0.35 -0.01    +0.009 C 
DOCKED: ATOM     46  CD2 0Q4 A 125      -4.433  15.789  37.987 -0.46 -0.00    +0.009 C 
DOCKED: ENDBRANCH  43  44
DOCKED: ENDBRANCH  42  43
DOCKED: BRANCH  42  47
DOCKED: ATOM     47  N2  0Q4 A 125      -5.577  16.866  33.907 -0.14 +0.29    -0.350 N 
DOCKED: ATOM     48  C1  0Q4 A 125      -6.882  16.729  34.053 -0.31 -0.23    +0.241 C 
DOCKED: ATOM     49  O1  0Q4 A 125      -7.498  17.383  34.885 -0.75 +0.30    -0.271 OA
DOCKED: ATOM     50  HN2 0Q4 A 125      -5.115  16.399  33.175 +0.09 -0.14    +0.163 HD
DOCKED: BRANCH  48  51
DOCKED: ATOM     51  CA1 0Q4 A 125      -7.590  15.806  33.027 -0.27 -0.18    +0.180 C 
DOCKED: BRANCH  51  52
DOCKED: ATOM     52  CB1 0Q4 A 125      -7.202  16.111  31.490 -0.28 -0.01    +0.009 C 
DOCKED: ATOM     53  CG1 0Q4 A 125      -7.186  17.613  31.195 -0.26 -0.02    +0.012 C 
DOCKED: ATOM     54  CG2 0Q4 A 125      -5.803  15.554  31.159 -0.26 -0.01    +0.012 C 
DOCKED: ENDBRANCH  51  52
DOCKED: BRANCH  51  55
DOCKED: ATOM     55  N1  0Q4 A 125      -9.045  15.814  33.192 -0.13 +0.46    -0.346 N 
DOCKED: ATOM     56  C   0Q4 A 125      -9.871  15.034  32.476 -0.20 -0.25    +0.249 C 
DOCKED: ATOM     57  O   0Q4 A 125      -9.465  14.248  31.599 -0.21 +0.20    -0.271 OA
DOCKED: ATOM     58  H1  0Q4 A 125      -9.385  16.416  33.888 -0.30 -0.33    +0.163 HD
DOCKED: BRANCH  56  59
DOCKED: ATOM     59  CA  0Q4 A 125     -11.402  15.209  32.730 -0.11 -0.29    +0.274 C 
DOCKED: BRANCH  59  60
DOCKED: ATOM     60  N   0Q4 A 125     -12.157  14.421  31.707 -0.12 +0.05    -0.067 N 
DOCKED: ATOM     61  H   0Q4 A 125     -12.552  13.562  32.113 +0.09 -0.16    +0.275 HD
DOCKED: ATOM     62  H2  0Q4 A 125     -12.919  15.059  31.364 +0.07 -0.19    +0.275 HD
DOCKED: ATOM     63  HN3 0Q4 A 125     -11.538  14.164  30.923 +0.07 -0.16    +0.275 HD
DOCKED: ENDBRANCH  59  60
DOCKED: BRANCH  59  64
DOCKED: ATOM     64  CB  0Q4 A 125     -11.832  14.754  34.130 -0.25 -0.05    +0.044 C 
DOCKED: BRANCH  64  65
DOCKED: ATOM     65  CG  0Q4 A 125     -13.132  13.885  34.224 -0.28 -0.02    +0.023 C 
DOCKED: BRANCH  65  66
DOCKED: ATOM     66  CD  0Q4 A 125     -14.360  14.557  34.934 -0.18 -0.09    +0.138 C 
DOCKED: BRANCH  66  67
DOCKED: ATOM     67  NE  0Q4 A 125     -14.090  15.880  35.512 -0.11 +0.22    -0.227 N 
DOCKED: ATOM     68  CZ  0Q4 A 125     -14.083  16.152  36.820 +0.02 -0.65    +0.665 C 
DOCKED: ATOM     69  NH1 0Q4 A 125     -14.316  15.180  37.686 -0.20 +0.14    -0.235 N 
DOCKED: ATOM     70  NH2 0Q4 A 125     -13.967  17.414  37.258 -0.08 +0.33    -0.235 N 
DOCKED: ATOM     71 HH11 0Q4 A 125     -14.490  14.251  37.364 +0.08 -0.09    +0.174 HD
DOCKED: ATOM     72 HH12 0Q4 A 125     -14.313  15.373  38.669 +0.09 -0.08    +0.174 HD
DOCKED: ATOM     73 HH21 0Q4 A 125     -13.881  18.170  36.611 -0.36 -0.37    +0.174 HD
DOCKED: ATOM     74 HH22 0Q4 A 125     -13.966  17.594  38.244 +0.06 -0.18    +0.174 HD
DOCKED: ATOM     75  HE  0Q4 A 125     -13.901  16.627  34.902 +0.05 -0.22    +0.177 HD
DOCKED: ENDBRANCH  66  67
DOCKED: ENDBRANCH  65  66
DOCKED: ENDBRANCH  64  65
DOCKED: ENDBRANCH  59  64
DOCKED: ENDBRANCH  56  59
DOCKED: ENDBRANCH  51  55
DOCKED: ENDBRANCH  48  51
DOCKED: ENDBRANCH  42  47
DOCKED: ENDBRANCH  40  42
DOCKED: ENDBRANCH   1  39
DOCKED: TORSDOF 29
DOCKED: TER
DOCKED: ENDMDL
________________________________________________________________________________


	BEGINNING GENETIC ALGORITHM DOCKING 9 of 10
Run: 9 Seed: 158283359 575330546 [ Run 9 of 10 GA/GALS ]
Beginning LAMARCKIAN GENETIC ALGORITHM (LGA), with a maximum of 2500000 energy evaluations.

Final-Value: -12.770


	FINAL GENETIC ALGORITHM DOCKED STATE
	_______________________________________________


Detailed state:  trans -4.362 16.484 32.411 quatxyzw 0.197874 -0.946492 -0.238401 -0.090356 center -1.190 15.842 33.892 ntor 29 180.0000 55.2271 179.1952 69.8269 -179.6818 -153.2358 -17.5814 -99.8302 167.6714 -61.2103 2.8547 143.8179 164.0034 -116.6576 -81.6116 99.6413 -179.7610 -88.2231 139.0936 -167.3422 86.4505 -124.0800 -172.0055 -42.9959 -178.5864 -30.9189 -138.2031 36.5753 -19.1240
State:	 -4.362  16.484  32.411   0.199 -0.950 -0.239 -169.632    180.00   55.23  179.20   69.83 -179.68 -153.24  -17.58  -99.83  167.67  -61.21    2.85  143.82  164.00 -116.66  -81.61   99.64 -179.76  -88.22  139.09 -167.34   86.45 -124.08 -172.01  -43.00 -178.59  -30.92 -138.20   36.58  -19.12

DOCKED: MODEL        9
DOCKED: USER    Run = 9
DOCKED: USER    DPF = dock.dpf
DOCKED: USER  
DOCKED: USER    Estimated Free Energy of Binding    =   +0.96 kcal/mol  [=(1)+(2)+(3)-(4)]
DOCKED: USER    
DOCKED: USER    (1) Final Intermolecular Energy     =   -7.70 kcal/mol
DOCKED: USER        vdW + Hbond + desolv Energy     =   -7.65 kcal/mol
DOCKED: USER        Electrostatic Energy            =   -0.04 kcal/mol
DOCKED: USER    (2) Final Total Internal Energy     =   -5.07 kcal/mol
DOCKED: USER    (3) Torsional Free Energy           =   +8.65 kcal/mol
DOCKED: USER    (4) Unbound System's Energy  [=(2)] =   -5.07 kcal/mol
DOCKED: USER    
DOCKED: USER    
DOCKED: USER    NEWDPF move lig1bai.pdbqt
DOCKED: USER    NEWDPF about -1.190000 15.842000 33.892000
DOCKED: USER    NEWDPF tran0 -4.361897 16.483660 32.410581
DOCKED: USER    NEWDPF quaternion0 0.197874 -0.946492 -0.238401 -0.090356
DOCKED: USER    NEWDPF axisangle0 0.198687 -0.950379 -0.239381 -169.631879
DOCKED: USER    NEWDPF quat0 0.198687 -0.950379 -0.239381 -169.631879
DOCKED: USER    NEWDPF dihe0 180.00 55.23 179.20 69.83 -179.68 -153.24 -17.58 -99.83 167.67 -61.21 2.85 143.82 164.00 -116.66 -81.61 99.64 -179.76 -88.22 139.09 -167.34 86.45 -124.08 -172.01 -43.00 -178.59 -30.92 -138.20 36.58 -19.12 
DOCKED: USER  keepresnum = 1 
DOCKED: USER  
DOCKED: REMARK  29 active torsions:
DOCKED: REMARK  status: ('A' for Active; 'I' for Inactive)
DOCKED: REMARK    1  A    between atoms: N_1  and  CA_2 
DOCKED: REMARK    2  A    between atoms: CA_2  and  C_9 
DOCKED: REMARK    3  A    between atoms: CA_2  and  CB_11 
DOCKED: REMARK    4  A    between atoms: CA1_3  and  CB1_12 
DOCKED: REMARK    5  A    between atoms: CA1_3  and  C1_42 
DOCKED: REMARK    6  A    between atoms: CA1_3  and  N1_43 
DOCKED: REMARK    7  A    between atoms: CA2_4  and  CB2_13 
DOCKED: REMARK    8  A    between atoms: CA2_4  and  C2_45 
DOCKED: REMARK    9  A    between atoms: CA2_4  and  N2_46 
DOCKED: REMARK   10  A    between atoms: CA3_5  and  CB3_14 
DOCKED: REMARK   11  A    between atoms: CA3_5  and  C3_48 
DOCKED: REMARK   12  A    between atoms: CA3_5  and  N3_49 
DOCKED: REMARK   13  A    between atoms: CA4_6  and  CB4_15 
DOCKED: REMARK   14  A    between atoms: CA4_6  and  C4_51 
DOCKED: REMARK   15  A    between atoms: CA4_6  and  N4_52 
DOCKED: REMARK   16  A    between atoms: CA5_7  and  C5_54 
DOCKED: REMARK   17  A    between atoms: CA5_7  and  N5_55 
DOCKED: REMARK   18  A    between atoms: CA6_8  and  CB6_17 
DOCKED: REMARK   19  A    between atoms: CA6_8  and  C6_57 
DOCKED: REMARK   20  A    between atoms: CA6_8  and  N6_58 
DOCKED: REMARK       I    between atoms: C_9  and  N1_43 
DOCKED: REMARK   21  A    between atoms: CB_11  and  CG_18 
DOCKED: REMARK   22  A    between atoms: CB2_13  and  CG3_21 
DOCKED: REMARK   23  A    between atoms: CB3_14  and  CG4_22 
DOCKED: REMARK   24  A    between atoms: CB4_15  and  CG5_23 
DOCKED: REMARK   25  A    between atoms: CB6_17  and  CG6_24 
DOCKED: REMARK   26  A    between atoms: CG_18  and  CD_25 
DOCKED: REMARK   27  A    between atoms: CG5_23  and  CD3_30 
DOCKED: REMARK   28  A    between atoms: CG6_24  and  CD4_31 
DOCKED: REMARK   29  A    between atoms: CD_25  and  NE_35 
DOCKED: REMARK       I    between atoms: NE_35  and  CZ_38 
DOCKED: REMARK       I    between atoms: CZ_38  and  NH1_40 
DOCKED: REMARK       I    between atoms: C1_42  and  N2_46 
DOCKED: REMARK       I    between atoms: C3_48  and  N4_52 
DOCKED: REMARK       I    between atoms: C4_51  and  N5_55 
DOCKED: REMARK       I    between atoms: C5_54  and  N6_58 
DOCKED: REMARK       I    between atoms: C6_57  and  N7_59 
DOCKED: USER                              x       y       z     vdW  Elec       q    Type
DOCKED: USER                           _______ _______ _______ _____ _____    ______ ____
DOCKED: ROOT
DOCKED: ATOM      1  CA3 0Q4 A 125      -4.367  17.271  34.630 -0.30 -0.15    +0.177 C 
DOCKED: ENDROOT
DOCKED: BRANCH   1   2
DOCKED: ATOM      2  CB3 0Q4 A 125      -4.271  16.424  35.934 -0.37 -0.05    +0.073 C 
DOCKED: BRANCH   2   3
DOCKED: ATOM      3  CG4 0Q4 A 125      -5.552  16.204  36.639 -0.42 +0.04    -0.056 A 
DOCKED: ATOM      4  CD1 0Q4 A 125      -6.550  15.426  36.068 -0.43 -0.00    +0.007 A 
DOCKED: ATOM      5  CE1 0Q4 A 125      -7.760  15.173  36.755 +0.36 -0.00    +0.001 A 
DOCKED: ATOM      6  CZ1 0Q4 A 125      -7.973  15.715  38.028 -0.52 -0.00    +0.000 A 
DOCKED: ATOM      7  CE2 0Q4 A 125      -6.983  16.506  38.607 -0.23 -0.00    +0.001 A 
DOCKED: ATOM      8  CD2 0Q4 A 125      -5.766  16.748  37.901 -0.44 -0.00    +0.007 A 
DOCKED: ENDBRANCH   2   3
DOCKED: ENDBRANCH   1   2
DOCKED: BRANCH   1   9
DOCKED: ATOM      9  C3  0Q4 A 125      -3.172  17.152  33.644 -0.23 -0.24    +0.241 C 
DOCKED: ATOM     10  O2  0Q4 A 125      -2.047  17.528  33.984 -0.25 +0.34    -0.271 OA
DOCKED: ATOM     11  N4  0Q4 A 125      -3.407  16.530  32.488 -0.09 +0.30    -0.346 N 
DOCKED: ATOM     12  H4  0Q4 A 125      -4.321  16.253  32.258 +0.09 -0.14    +0.163 HD
DOCKED: BRANCH  11  13
DOCKED: ATOM     13  CA4 0Q4 A 125      -2.363  16.272  31.492 -0.23 -0.14    +0.177 C 
DOCKED: BRANCH  13  14
DOCKED: ATOM     14  CB4 0Q4 A 125      -2.076  17.580  30.702 -0.32 -0.05    +0.045 C 
DOCKED: BRANCH  14  15
DOCKED: ATOM     15  CG5 0Q4 A 125      -0.654  18.106  30.720 -0.33 -0.18    +0.116 C 
DOCKED: BRANCH  15  16
DOCKED: ATOM     16  CD3 0Q4 A 125      -0.022  18.184  29.322 +0.03 -0.24    +0.172 C 
DOCKED: ATOM     17  OE1 0Q4 A 125      -0.747  17.997  28.327 +0.20 +0.57    -0.648 OA
DOCKED: ATOM     18  OE2 0Q4 A 125       1.206  18.437  29.197 +1.06 +1.15    -0.648 OA
DOCKED: ENDBRANCH  15  16
DOCKED: ENDBRANCH  14  15
DOCKED: ENDBRANCH  13  14
DOCKED: BRANCH  13  19
DOCKED: ATOM     19  C4  0Q4 A 125      -1.050  15.703  32.038 -0.23 -0.16    +0.241 C 
DOCKED: ATOM     20  O3  0Q4 A 125      -0.058  15.547  31.322 -0.11 +0.16    -0.271 OA
DOCKED: ATOM     21  N5  0Q4 A 125      -1.101  15.244  33.277 -0.05 +0.18    -0.346 N 
DOCKED: ATOM     22  H5  0Q4 A 125      -1.941  15.279  33.787 +0.12 -0.09    +0.163 HD
DOCKED: BRANCH  21  23
DOCKED: ATOM     23  CA5 0Q4 A 125       0.073  14.686  33.913 +0.12 -0.05    +0.172 C 
DOCKED: ATOM     24  CB5 0Q4 A 125       0.316  13.302  33.341 +0.65 +0.01    +0.042 C 
DOCKED: BRANCH  23  25
DOCKED: ATOM     25  C5  0Q4 A 125       1.379  15.515  33.816 -0.24 -0.13    +0.240 C 
DOCKED: ATOM     26  O4  0Q4 A 125       1.832  16.132  34.783 -0.16 +0.17    -0.271 OA
DOCKED: ATOM     27  N6  0Q4 A 125       1.926  15.548  32.606 -0.08 +0.20    -0.346 N 
DOCKED: ATOM     28  H6  0Q4 A 125       1.481  15.064  31.890 +0.17 -0.08    +0.163 HD
DOCKED: BRANCH  27  29
DOCKED: ATOM     29  CA6 0Q4 A 125       3.107  16.331  32.267 -0.26 -0.13    +0.176 C 
DOCKED: BRANCH  29  30
DOCKED: ATOM     30  CB6 0Q4 A 125       4.331  15.383  32.197 -0.31 -0.02    +0.035 C 
DOCKED: BRANCH  30  31
DOCKED: ATOM     31  CG6 0Q4 A 125       5.295  15.528  30.967 -0.46 -0.00    +0.002 C 
DOCKED: BRANCH  31  32
DOCKED: ATOM     32  CD4 0Q4 A 125       6.463  16.572  31.166 -0.47 +0.00    -0.004 C 
DOCKED: ATOM     33  CE  0Q4 A 125       6.189  17.476  32.350 -0.37 -0.00    +0.005 C 
DOCKED: ENDBRANCH  31  32
DOCKED: ENDBRANCH  30  31
DOCKED: ENDBRANCH  29  30
DOCKED: BRANCH  29  34
DOCKED: ATOM     34  C6  0Q4 A 125       2.832  16.938  30.881 -0.25 -0.21    +0.238 C 
DOCKED: ATOM     35  O5  0Q4 A 125       3.034  18.170  30.669 +0.72 +0.36    -0.271 OA
DOCKED: ATOM     36  N7  0Q4 A 125       2.373  16.155  30.012 +0.03 +0.26    -0.368 N 
DOCKED: ATOM     37  H72 0Q4 A 125       2.211  15.163  30.181 +0.33 -0.08    +0.159 HD
DOCKED: ATOM     38  H71 0Q4 A 125       2.191  16.558  29.092 +0.12 -0.12    +0.159 HD
DOCKED: ENDBRANCH  29  34
DOCKED: ENDBRANCH  27  29
DOCKED: ENDBRANCH  23  25
DOCKED: ENDBRANCH  21  23
DOCKED: ENDBRANCH  13  19
DOCKED: ENDBRANCH  11  13
DOCKED: ENDBRANCH   1   9
DOCKED: BRANCH   1  39
DOCKED: ATOM     39  N3  0Q4 A 125      -5.536  16.788  33.886 -0.11 +0.32    -0.387 N 
DOCKED: ATOM     40  C2  0Q4 A 125      -6.295  17.565  33.133 -0.33 -0.07    +0.081 C 
DOCKED: ATOM     41  H3  0Q4 A 125      -5.757  15.838  33.933 +0.08 -0.13    +0.159 HD
DOCKED: BRANCH  40  42
DOCKED: ATOM     42  CA2 0Q4 A 125      -7.435  16.868  32.404 -0.29 -0.14    +0.123 C 
DOCKED: BRANCH  42  43
DOCKED: ATOM     43  CB2 0Q4 A 125      -7.843  17.614  31.110 +0.52 -0.06    +0.034 C 
DOCKED: BRANCH  43  44
DOCKED: ATOM     44  CG3 0Q4 A 125      -7.014  17.252  29.846 -0.22 +0.02    -0.020 C 
DOCKED: ATOM     45  CD1 0Q4 A 125      -6.131  18.400  29.359 -0.31 -0.01    +0.009 C 
DOCKED: ATOM     46  CD2 0Q4 A 125      -6.160  16.027  30.119 -0.21 -0.01    +0.009 C 
DOCKED: ENDBRANCH  43  44
DOCKED: ENDBRANCH  42  43
DOCKED: BRANCH  42  47
DOCKED: ATOM     47  N2  0Q4 A 125      -8.619  16.571  33.188 -0.15 +0.50    -0.350 N 
DOCKED: ATOM     48  C1  0Q4 A 125      -9.099  15.342  33.259 -0.24 -0.28    +0.241 C 
DOCKED: ATOM     49  O1  0Q4 A 125      -8.477  14.392  32.801 -0.44 +0.21    -0.271 OA
DOCKED: ATOM     50  HN2 0Q4 A 125      -9.089  17.307  33.640 -0.12 -0.32    +0.163 HD
DOCKED: BRANCH  48  51
DOCKED: ATOM     51  CA1 0Q4 A 125     -10.410  15.169  34.069 -0.04 -0.27    +0.180 C 
DOCKED: BRANCH  51  52
DOCKED: ATOM     52  CB1 0Q4 A 125     -10.877  13.633  34.244 -0.40 -0.01    +0.009 C 
DOCKED: ATOM     53  CG1 0Q4 A 125     -12.350  13.441  33.876 -0.35 -0.01    +0.012 C 
DOCKED: ATOM     54  CG2 0Q4 A 125     -10.043  12.703  33.341 -0.20 -0.01    +0.012 C 
DOCKED: ENDBRANCH  51  52
DOCKED: BRANCH  51  55
DOCKED: ATOM     55  N1  0Q4 A 125     -11.506  15.969  33.519 -0.03 +0.57    -0.346 N 
DOCKED: ATOM     56  C   0Q4 A 125     -11.968  15.822  32.267 -0.09 -0.28    +0.249 C 
DOCKED: ATOM     57  O   0Q4 A 125     -11.489  14.999  31.464 -0.09 +0.22    -0.271 OA
DOCKED: ATOM     58  H1  0Q4 A 125     -11.908  16.614  34.139 -0.44 -0.38    +0.163 HD
DOCKED: BRANCH  56  59
DOCKED: ATOM     59  CA  0Q4 A 125     -13.101  16.799  31.814 -0.05 -0.27    +0.274 C 
DOCKED: BRANCH  59  60
DOCKED: ATOM     60  N   0Q4 A 125     -14.031  16.071  30.897 -0.02 +0.04    -0.067 N 
DOCKED: ATOM     61  H   0Q4 A 125     -14.951  15.925  31.334 +0.03 -0.14    +0.275 HD
DOCKED: ATOM     62  H2  0Q4 A 125     -14.115  16.676  30.041 +0.03 -0.15    +0.275 HD
DOCKED: ATOM     63  HN3 0Q4 A 125     -13.636  15.153  30.639 +0.04 -0.15    +0.275 HD
DOCKED: ENDBRANCH  59  60
DOCKED: BRANCH  59  64
DOCKED: ATOM     64  CB  0Q4 A 125     -13.903  17.369  32.991 -0.13 -0.04    +0.044 C 
DOCKED: BRANCH  64  65
DOCKED: ATOM     65  CG  0Q4 A 125     -13.865  16.561  34.333 -0.16 -0.03    +0.023 C 
DOCKED: BRANCH  65  66
DOCKED: ATOM     66  CD  0Q4 A 125     -14.872  15.363  34.444 -0.10 -0.09    +0.138 C 
DOCKED: BRANCH  66  67
DOCKED: ATOM     67  NE  0Q4 A 125     -15.131  14.900  35.814 -0.12 +0.12    -0.227 N 
DOCKED: ATOM     68  CZ  0Q4 A 125     -14.185  14.619  36.713 -0.02 -0.41    +0.665 C 
DOCKED: ATOM     69  NH1 0Q4 A 125     -12.913  14.773  36.387 -0.20 +0.22    -0.235 N 
DOCKED: ATOM     70  NH2 0Q4 A 125     -14.501  14.067  37.894 -0.27 +0.11    -0.235 N 
DOCKED: ATOM     71 HH11 0Q4 A 125     -12.664  15.102  35.477 +0.06 -0.21    +0.174 HD
DOCKED: ATOM     72 HH12 0Q4 A 125     -12.195  14.566  37.054 +0.10 -0.16    +0.174 HD
DOCKED: ATOM     73 HH21 0Q4 A 125     -15.452  13.860  38.119 -0.41 -0.11    +0.174 HD
DOCKED: ATOM     74 HH22 0Q4 A 125     -13.774  13.863  38.552 +0.09 -0.07    +0.174 HD
DOCKED: ATOM     75  HE  0Q4 A 125     -16.064  14.783  36.099 +0.06 -0.07    +0.177 HD
DOCKED: ENDBRANCH  66  67
DOCKED: ENDBRANCH  65  66
DOCKED: ENDBRANCH  64  65
DOCKED: ENDBRANCH  59  64
DOCKED: ENDBRANCH  56  59
DOCKED: ENDBRANCH  51  55
DOCKED: ENDBRANCH  48  51
DOCKED: ENDBRANCH  42  47
DOCKED: ENDBRANCH  40  42
DOCKED: ENDBRANCH   1  39
DOCKED: TORSDOF 29
DOCKED: TER
DOCKED: ENDMDL
________________________________________________________________________________


	BEGINNING GENETIC ALGORITHM DOCKING 10 of 10
Run: 10 Seed: 1429218783 1077082061 [ Run 10 of 10 GA/GALS ]
Beginning LAMARCKIAN GENETIC ALGORITHM (LGA), with a maximum of 2500000 energy evaluations.

Final-Value: -21.585


	FINAL GENETIC ALGORITHM DOCKED STATE
	_______________________________________________


Detailed state:  trans -2.167 16.297 32.066 quatxyzw -0.552492 -0.337853 0.757062 0.086401 center -1.190 15.842 33.892 ntor 29 152.2412 8.9113 -3.7470 -180.0000 -68.1193 -103.9304 61.5406 92.2742 177.5443 -49.5705 -16.9664 49.2497 54.0063 1.0795 128.2135 76.4039 -32.9584 -120.0190 -71.0646 -179.9600 56.2973 20.2979 -82.9681 -133.2017 -160.1828 -64.8859 133.0352 -108.9862 -39.9243
State:	 -2.167  16.297  32.066  -0.555 -0.339  0.760 170.087    152.24    8.91   -3.75 -180.00  -68.12 -103.93   61.54   92.27  177.54  -49.57  -16.97   49.25   54.01    1.08  128.21   76.40  -32.96 -120.02  -71.06 -179.96   56.30   20.30  -82.97 -133.20 -160.18  -64.89  133.04 -108.99  -39.92

DOCKED: MODEL       10
DOCKED: USER    Run = 10
DOCKED: USER    DPF = dock.dpf
DOCKED: USER  
DOCKED: USER    Estimated Free Energy of Binding    =   -6.15 kcal/mol  [=(1)+(2)+(3)-(4)]
DOCKED: USER    Estimated Inhibition Constant, Ki   =   30.89 uM (micromolar)  [Temperature = 298.15 K]
DOCKED: USER    
DOCKED: USER    (1) Final Intermolecular Energy     =  -14.80 kcal/mol
DOCKED: USER        vdW + Hbond + desolv Energy     =  -13.10 kcal/mol
DOCKED: USER        Electrostatic Energy            =   -1.70 kcal/mol
DOCKED: USER    (2) Final Total Internal Energy     =   -6.78 kcal/mol
DOCKED: USER    (3) Torsional Free Energy           =   +8.65 kcal/mol
DOCKED: USER    (4) Unbound System's Energy  [=(2)] =   -6.78 kcal/mol
DOCKED: USER    
DOCKED: USER    
DOCKED: USER    NEWDPF move lig1bai.pdbqt
DOCKED: USER    NEWDPF about -1.190000 15.842000 33.892000
DOCKED: USER    NEWDPF tran0 -2.166832 16.296918 32.066391
DOCKED: USER    NEWDPF quaternion0 -0.552492 -0.337853 0.757062 0.086401
DOCKED: USER    NEWDPF axisangle0 -0.554566 -0.339122 0.759904 170.086855
DOCKED: USER    NEWDPF quat0 -0.554566 -0.339122 0.759904 170.086855
DOCKED: USER    NEWDPF dihe0 152.24 8.91 -3.75 -180.00 -68.12 -103.93 61.54 92.27 177.54 -49.57 -16.97 49.25 54.01 1.08 128.21 76.40 -32.96 -120.02 -71.06 -179.96 56.30 20.30 -82.97 -133.20 -160.18 -64.89 133.04 -108.99 -39.92 
DOCKED: USER  keepresnum = 1 
DOCKED: USER  
DOCKED: REMARK  29 active torsions:
DOCKED: REMARK  status: ('A' for Active; 'I' for Inactive)
DOCKED: REMARK    1  A    between atoms: N_1  and  CA_2 
DOCKED: REMARK    2  A    between atoms: CA_2  and  C_9 
DOCKED: REMARK    3  A    between atoms: CA_2  and  CB_11 
DOCKED: REMARK    4  A    between atoms: CA1_3  and  CB1_12 
DOCKED: REMARK    5  A    between atoms: CA1_3  and  C1_42 
DOCKED: REMARK    6  A    between atoms: CA1_3  and  N1_43 
DOCKED: REMARK    7  A    between atoms: CA2_4  and  CB2_13 
DOCKED: REMARK    8  A    between atoms: CA2_4  and  C2_45 
DOCKED: REMARK    9  A    between atoms: CA2_4  and  N2_46 
DOCKED: REMARK   10  A    between atoms: CA3_5  and  CB3_14 
DOCKED: REMARK   11  A    between atoms: CA3_5  and  C3_48 
DOCKED: REMARK   12  A    between atoms: CA3_5  and  N3_49 
DOCKED: REMARK   13  A    between atoms: CA4_6  and  CB4_15 
DOCKED: REMARK   14  A    between atoms: CA4_6  and  C4_51 
DOCKED: REMARK   15  A    between atoms: CA4_6  and  N4_52 
DOCKED: REMARK   16  A    between atoms: CA5_7  and  C5_54 
DOCKED: REMARK   17  A    between atoms: CA5_7  and  N5_55 
DOCKED: REMARK   18  A    between atoms: CA6_8  and  CB6_17 
DOCKED: REMARK   19  A    between atoms: CA6_8  and  C6_57 
DOCKED: REMARK   20  A    between atoms: CA6_8  and  N6_58 
DOCKED: REMARK       I    between atoms: C_9  and  N1_43 
DOCKED: REMARK   21  A    between atoms: CB_11  and  CG_18 
DOCKED: REMARK   22  A    between atoms: CB2_13  and  CG3_21 
DOCKED: REMARK   23  A    between atoms: CB3_14  and  CG4_22 
DOCKED: REMARK   24  A    between atoms: CB4_15  and  CG5_23 
DOCKED: REMARK   25  A    between atoms: CB6_17  and  CG6_24 
DOCKED: REMARK   26  A    between atoms: CG_18  and  CD_25 
DOCKED: REMARK   27  A    between atoms: CG5_23  and  CD3_30 
DOCKED: REMARK   28  A    between atoms: CG6_24  and  CD4_31 
DOCKED: REMARK   29  A    between atoms: CD_25  and  NE_35 
DOCKED: REMARK       I    between atoms: NE_35  and  CZ_38 
DOCKED: REMARK       I    between atoms: CZ_38  and  NH1_40 
DOCKED: REMARK       I    between atoms: C1_42  and  N2_46 
DOCKED: REMARK       I    between atoms: C3_48  and  N4_52 
DOCKED: REMARK       I    between atoms: C4_51  and  N5_55 
DOCKED: REMARK       I    between atoms: C5_54  and  N6_58 
DOCKED: REMARK       I    between atoms: C6_57  and  N7_59 
DOCKED: USER                              x       y       z     vdW  Elec       q    Type
DOCKED: USER                           _______ _______ _______ _____ _____    ______ ____
DOCKED: ROOT
DOCKED: ATOM      1  CA3 0Q4 A 125       0.004  15.931  31.231 -0.07 -0.13    +0.177 C 
DOCKED: ENDROOT
DOCKED: BRANCH   1   2
DOCKED: ATOM      2  CB3 0Q4 A 125       1.002  16.999  30.692 -0.33 -0.08    +0.073 C 
DOCKED: BRANCH   2   3
DOCKED: ATOM      3  CG4 0Q4 A 125       2.432  16.692  30.907 -0.30 +0.05    -0.056 A 
DOCKED: ATOM      4  CD1 0Q4 A 125       2.833  15.897  31.972 -0.25 -0.00    +0.007 A 
DOCKED: ATOM      5  CE1 0Q4 A 125       4.194  15.561  32.159 -0.33 -0.00    +0.001 A 
DOCKED: ATOM      6  CZ1 0Q4 A 125       5.165  16.035  31.271 -0.36 -0.00    +0.000 A 
DOCKED: ATOM      7  CE2 0Q4 A 125       4.776  16.843  30.204 -0.39 -0.00    +0.001 A 
DOCKED: ATOM      8  CD2 0Q4 A 125       3.398  17.169  30.027 -0.35 -0.01    +0.007 A 
DOCKED: ENDBRANCH   2   3
DOCKED: ENDBRANCH   1   2
DOCKED: BRANCH   1   9
DOCKED: ATOM      9  C3  0Q4 A 125      -0.453  16.101  32.706 -0.20 -0.18    +0.241 C 
DOCKED: ATOM     10  O2  0Q4 A 125      -0.796  15.117  33.366 -0.22 +0.13    -0.271 OA
DOCKED: ATOM     11  N4  0Q4 A 125      -0.344  17.321  33.232 -0.09 +0.44    -0.346 N 
DOCKED: ATOM     12  H4  0Q4 A 125      -0.072  18.076  32.665 +0.10 -0.28    +0.163 HD
DOCKED: BRANCH  11  13
DOCKED: ATOM     13  CA4 0Q4 A 125      -0.662  17.620  34.631 -0.17 -0.27    +0.177 C 
DOCKED: BRANCH  13  14
DOCKED: ATOM     14  CB4 0Q4 A 125      -2.149  17.260  34.906 -0.38 -0.05    +0.045 C 
DOCKED: BRANCH  14  15
DOCKED: ATOM     15  CG5 0Q4 A 125      -2.454  16.477  36.168 -0.10 -0.08    +0.116 C 
DOCKED: BRANCH  15  16
DOCKED: ATOM     16  CD3 0Q4 A 125      -3.955  16.411  36.490 -0.14 -0.11    +0.172 C 
DOCKED: ATOM     17  OE1 0Q4 A 125      -4.660  17.411  36.257 +0.28 +0.48    -0.648 OA
DOCKED: ATOM     18  OE2 0Q4 A 125      -4.451  15.361  36.976 -0.01 +0.35    -0.648 OA
DOCKED: ENDBRANCH  15  16
DOCKED: ENDBRANCH  14  15
DOCKED: ENDBRANCH  13  14
DOCKED: BRANCH  13  19
DOCKED: ATOM     19  C4  0Q4 A 125       0.232  16.943  35.675 -0.22 -0.24    +0.241 C 
DOCKED: ATOM     20  O3  0Q4 A 125       0.768  15.852  35.467 -0.26 +0.15    -0.271 OA
DOCKED: ATOM     21  N5  0Q4 A 125       0.261  17.525  36.862 -0.14 +0.37    -0.346 N 
DOCKED: ATOM     22  H5  0Q4 A 125      -0.269  18.336  37.032 -0.20 -0.26    +0.163 HD
DOCKED: BRANCH  21  23
DOCKED: ATOM     23  CA5 0Q4 A 125       1.072  16.989  37.934 -0.34 -0.10    +0.172 C 
DOCKED: ATOM     24  CB5 0Q4 A 125       0.251  15.958  38.685 -0.52 -0.02    +0.042 C 
DOCKED: BRANCH  23  25
DOCKED: ATOM     25  C5  0Q4 A 125       2.433  16.366  37.534 -0.24 -0.10    +0.240 C 
DOCKED: ATOM     26  O4  0Q4 A 125       2.605  15.146  37.493 -0.24 +0.07    -0.271 OA
DOCKED: ATOM     27  N6  0Q4 A 125       3.398  17.249  37.299 -0.08 +0.16    -0.346 N 
DOCKED: ATOM     28  H6  0Q4 A 125       3.186  18.193  37.391 +0.08 -0.10    +0.163 HD
DOCKED: BRANCH  27  29
DOCKED: ATOM     29  CA6 0Q4 A 125       4.775  16.888  36.990 -0.17 -0.05    +0.176 C 
DOCKED: BRANCH  29  30
DOCKED: ATOM     30  CB6 0Q4 A 125       5.253  15.822  38.010 -0.23 -0.01    +0.035 C 
DOCKED: BRANCH  30  31
DOCKED: ATOM     31  CG6 0Q4 A 125       6.766  15.839  38.425 -0.21 +0.00    +0.002 C 
DOCKED: BRANCH  31  32
DOCKED: ATOM     32  CD4 0Q4 A 125       7.688  14.867  37.587 -0.16 +0.00    -0.004 C 
DOCKED: ATOM     33  CE  0Q4 A 125       7.019  13.523  37.385 -0.24 -0.00    +0.005 C 
DOCKED: ENDBRANCH  31  32
DOCKED: ENDBRANCH  30  31
DOCKED: ENDBRANCH  29  30
DOCKED: BRANCH  29  34
DOCKED: ATOM     34  C6  0Q4 A 125       4.751  16.287  35.574 -0.14 -0.11    +0.238 C 
DOCKED: ATOM     35  O5  0Q4 A 125       5.296  16.899  34.610 -0.14 +0.15    -0.271 OA
DOCKED: ATOM     36  N7  0Q4 A 125       4.141  15.197  35.443 -0.09 +0.16    -0.368 N 
DOCKED: ATOM     37  H72 0Q4 A 125       3.702  14.703  36.220 +0.07 -0.05    +0.159 HD
DOCKED: ATOM     38  H71 0Q4 A 125       4.125  14.798  34.504 -0.24 -0.09    +0.159 HD
DOCKED: ENDBRANCH  29  34
DOCKED: ENDBRANCH  27  29
DOCKED: ENDBRANCH  23  25
DOCKED: ENDBRANCH  21  23
DOCKED: ENDBRANCH  13  19
DOCKED: ENDBRANCH  11  13
DOCKED: ENDBRANCH   1   9
DOCKED: BRANCH   1  39
DOCKED: ATOM     39  N3  0Q4 A 125      -1.220  16.040  30.428 -0.09 +0.26    -0.387 N 
DOCKED: ATOM     40  C2  0Q4 A 125      -1.774  15.018  29.800 -0.24 -0.04    +0.081 C 
DOCKED: ATOM     41  H3  0Q4 A 125      -1.660  16.909  30.368 +0.10 -0.14    +0.159 HD
DOCKED: BRANCH  40  42
DOCKED: ATOM     42  CA2 0Q4 A 125      -3.068  15.323  29.057 -0.32 -0.06    +0.123 C 
DOCKED: BRANCH  42  43
DOCKED: ATOM     43  CB2 0Q4 A 125      -2.866  16.382  27.946 -0.05 -0.02    +0.034 C 
DOCKED: BRANCH  43  44
DOCKED: ATOM     44  CG3 0Q4 A 125      -2.883  17.860  28.428 -0.34 +0.01    -0.020 C 
DOCKED: ATOM     45  CD1 0Q4 A 125      -3.138  17.998  29.929 -0.24 -0.01    +0.009 C 
DOCKED: ATOM     46  CD2 0Q4 A 125      -1.575  18.539  28.066 -0.29 -0.01    +0.009 C 
DOCKED: ENDBRANCH  43  44
DOCKED: ENDBRANCH  42  43
DOCKED: BRANCH  42  47
DOCKED: ATOM     47  N2  0Q4 A 125      -4.213  15.684  29.871 -0.07 +0.21    -0.350 N 
DOCKED: ATOM     48  C1  0Q4 A 125      -5.444  15.572  29.405 -0.13 -0.14    +0.241 C 
DOCKED: ATOM     49  O1  0Q4 A 125      -5.667  15.014  28.338 -0.12 +0.12    -0.271 OA
DOCKED: ATOM     50  HN2 0Q4 A 125      -4.062  16.054  30.770 +0.08 -0.12    +0.163 HD
DOCKED: BRANCH  48  51
DOCKED: ATOM     51  CA1 0Q4 A 125      -6.576  16.060  30.346 -0.15 -0.14    +0.180 C 
DOCKED: BRANCH  51  52
DOCKED: ATOM     52  CB1 0Q4 A 125      -7.053  17.577  30.070 -0.25 -0.01    +0.009 C 
DOCKED: ATOM     53  CG1 0Q4 A 125      -6.008  18.367  29.277 -0.31 -0.01    +0.012 C 
DOCKED: ATOM     54  CG2 0Q4 A 125      -8.367  17.598  29.263 -0.11 -0.01    +0.012 C 
DOCKED: ENDBRANCH  51  52
DOCKED: BRANCH  51  55
DOCKED: ATOM     55  N1  0Q4 A 125      -6.229  15.889  31.758 -0.07 +0.30    -0.346 N 
DOCKED: ATOM     56  C   0Q4 A 125      -6.671  16.706  32.728 -0.23 -0.24    +0.249 C 
DOCKED: ATOM     57  O   0Q4 A 125      -7.402  17.688  32.501 -0.67 +0.32    -0.271 OA
DOCKED: ATOM     58  H1  0Q4 A 125      -5.665  15.112  31.961 -0.23 -0.15    +0.163 HD
DOCKED: BRANCH  56  59
DOCKED: ATOM     59  CA  0Q4 A 125      -6.157  16.422  34.176 -0.24 -0.23    +0.274 C 
DOCKED: BRANCH  59  60
DOCKED: ATOM     60  N   0Q4 A 125      -6.841  17.355  35.124 -0.49 +0.06    -0.067 N 
DOCKED: ATOM     61  H   0Q4 A 125      -7.365  16.839  35.845 +0.16 -0.29    +0.275 HD
DOCKED: ATOM     62  H2  0Q4 A 125      -6.075  17.930  35.558 +0.19 -0.21    +0.275 HD
DOCKED: ATOM     63  HN3 0Q4 A 125      -7.495  17.970  34.615 +0.14 -0.26    +0.275 HD
DOCKED: ENDBRANCH  59  60
DOCKED: BRANCH  59  64
DOCKED: ATOM     64  CB  0Q4 A 125      -6.408  14.978  34.627 -0.43 -0.03    +0.044 C 
DOCKED: BRANCH  64  65
DOCKED: ATOM     65  CG  0Q4 A 125      -7.877  14.444  34.512 -0.29 -0.02    +0.023 C 
DOCKED: BRANCH  65  66
DOCKED: ATOM     66  CD  0Q4 A 125      -8.467  14.361  33.060 -0.38 -0.11    +0.138 C 
DOCKED: BRANCH  66  67
DOCKED: ATOM     67  NE  0Q4 A 125      -9.804  13.759  32.971 -0.29 +0.15    -0.227 N 
DOCKED: ATOM     68  CZ  0Q4 A 125     -10.922  14.316  33.445 +0.00 -0.61    +0.665 C 
DOCKED: ATOM     69  NH1 0Q4 A 125     -10.860  15.501  34.028 +0.09 +0.41    -0.235 N 
DOCKED: ATOM     70  NH2 0Q4 A 125     -12.079  13.637  33.449 -0.16 +0.17    -0.235 N 
DOCKED: ATOM     71 HH11 0Q4 A 125      -9.985  15.977  34.107 -0.45 -0.39    +0.174 HD
DOCKED: ATOM     72 HH12 0Q4 A 125     -11.692  15.928  34.386 -0.44 -0.37    +0.174 HD
DOCKED: ATOM     73 HH21 0Q4 A 125     -12.121  12.705  33.094 +0.07 -0.10    +0.174 HD
DOCKED: ATOM     74 HH22 0Q4 A 125     -12.904  14.075  33.811 +0.08 -0.13    +0.174 HD
DOCKED: ATOM     75  HE  0Q4 A 125      -9.895  12.882  32.535 +0.05 -0.09    +0.177 HD
DOCKED: ENDBRANCH  66  67
DOCKED: ENDBRANCH  65  66
DOCKED: ENDBRANCH  64  65
DOCKED: ENDBRANCH  59  64
DOCKED: ENDBRANCH  56  59
DOCKED: ENDBRANCH  51  55
DOCKED: ENDBRANCH  48  51
DOCKED: ENDBRANCH  42  47
DOCKED: ENDBRANCH  40  42
DOCKED: ENDBRANCH   1  39
DOCKED: TORSDOF 29
DOCKED: TER
DOCKED: ENDMDL
________________________________________________________________________________

DPF> analysis                             # perform a ranked cluster analysis


		CLUSTER ANALYSIS OF CONFORMATIONS
		_________________________________

Number of conformations = 10

RMSD cluster analysis will be performed using the ligand atoms only (75 / 75 total atoms).

Outputting structurally similar clusters, ranked in order of increasing energy.


________________________________________________________________________________

Number of distinct conformational clusters found = 10,  out of 10 runs,
Using an rmsd-tolerance of 2.0 A


	CLUSTERING HISTOGRAM
	____________________

________________________________________________________________________________
     |           |     |           |     |                                    
Clus | Lowest    | Run | Mean      | Num | Histogram                          
-ter | Binding   |     | Binding   | in  |                                    
Rank | Energy    |     | Energy    | Clus|    5    10   15   20   25   30   35
_____|___________|_____|___________|_____|____:____|____:____|____:____|____:___
   1 |     -6.69 |   8 |     -6.69 |   1 |#
   2 |     -6.40 |   3 |     -6.40 |   1 |#
   3 |     -6.15 |  10 |     -6.15 |   1 |#
   4 |     -5.78 |   6 |     -5.78 |   1 |#
   5 |     -4.95 |   7 |     -4.95 |   1 |#
   6 |     -2.65 |   4 |     -2.65 |   1 |#
   7 |     +0.96 |   9 |     +0.96 |   1 |#
   8 |     +5.74 |   5 |     +5.74 |   1 |#
   9 |     +6.59 |   1 |     +6.59 |   1 |#
  10 |     +9.80 |   2 |     +9.80 |   1 |#
_____|___________|_____|___________|_____|______________________________________

	RMSD TABLE
	__________

_____________________________________________________________________
     |      |      |           |         |                 |
Rank | Sub- | Run  | Binding   | Cluster | Reference       | Grep
     | Rank |      | Energy    | RMSD    | RMSD            | Pattern
_____|______|______|___________|_________|_________________|___________
   1      1      8       -6.69      0.00      3.72           RANKING
   2      1      3       -6.40      0.00      3.31           RANKING
   3      1     10       -6.15      0.00      3.03           RANKING
   4      1      6       -5.78      0.00      2.17           RANKING
   5      1      7       -4.95      0.00      2.08           RANKING
   6      1      4       -2.65      0.00      3.38           RANKING
   7      1      9       +0.96      0.00      3.84           RANKING
   8      1      5       +5.74      0.00      3.54           RANKING
   9      1      1       +6.59      0.00      3.78           RANKING
  10      1      2       +9.80      0.00      3.88           RANKING
_______________________________________________________________________



	INFORMATION ENTROPY ANALYSIS FOR THIS CLUSTERING
	________________________________________________


Information entropy for this clustering = 1.00  (rmstol = 2.00 Angstrom)

_______________________________________________________________________


	STATISTICAL MECHANICAL ANALYSIS
	_______________________________


Partition function, Q =    10.02            at Temperature, T = 298.15 K
Free energy,        A ~ -1365.22 kcal/mol   at Temperature, T = 298.15 K
Internal energy,    U =    -1.01 kcal/mol   at Temperature, T = 298.15 K
Entropy,            S =     4.58 kcal/mol/K at Temperature, T = 298.15 K

_______________________________________________________________________


	LOWEST ENERGY DOCKED CONFORMATION from EACH CLUSTER
	___________________________________________________



Keeping original residue number (specified in the input PDBQ file) for outputting.

MODEL        8
USER    Run = 8
USER    Cluster Rank = 1
USER    Number of conformations in this cluster = 1
USER  
USER    RMSD from reference structure       = 3.723 A
USER  
USER    Estimated Free Energy of Binding    =   -6.69 kcal/mol  [=(1)+(2)+(3)-(4)]
USER    Estimated Inhibition Constant, Ki   =   12.52 uM (micromolar)  [Temperature = 298.15 K]
USER    
USER    (1) Final Intermolecular Energy     =  -15.34 kcal/mol
USER        vdW + Hbond + desolv Energy     =  -13.97 kcal/mol
USER        Electrostatic Energy            =   -1.37 kcal/mol
USER    (2) Final Total Internal Energy     =   -5.58 kcal/mol
USER    (3) Torsional Free Energy           =   +8.65 kcal/mol
USER    (4) Unbound System's Energy  [=(2)] =   -5.58 kcal/mol
USER    
USER    
USER  
USER    DPF = dock.dpf
USER    NEWDPF move	lig1bai.pdbqt
USER    NEWDPF about	-1.190000 15.842000 33.892000
USER    NEWDPF tran0	-2.437497 17.194279 34.028070
USER    NEWDPF axisangle0	0.056760 0.914280 0.401086 152.085943
USER    NEWDPF quaternion0	0.055084 0.887288 0.389245 0.241194
USER    NEWDPF dihe0	65.54 180.00 -38.10 178.49 -92.85 -178.25 27.62 101.21 161.56 2.36 140.76 179.91 35.51 -179.92 -136.80 -103.62 151.16 157.91 -14.44 67.73 43.08 111.15 -47.75 82.72 180.00 -98.06 172.12 179.46 63.54 
USER  
USER                              x       y       z    vdW   Elec        q     RMS 
ATOM      1  CA3 0Q4 A 125      -1.195  17.247  36.027 -0.30 -0.20    +0.177     3.723
ATOM      2  CB3 0Q4 A 125      -0.957  16.073  37.024 -0.32 -0.04    +0.073     3.723
ATOM      3  CG4 0Q4 A 125       0.451  15.848  37.411 -0.41 +0.03    -0.056     3.723
ATOM      4  CD1 0Q4 A 125       0.921  16.264  38.649 -0.51 -0.00    +0.007     3.723
ATOM      5  CE1 0Q4 A 125       2.255  16.013  39.045 -0.44 -0.00    +0.001     3.723
ATOM      6  CZ1 0Q4 A 125       3.131  15.343  38.184 -0.25 -0.00    +0.000     3.723
ATOM      7  CE2 0Q4 A 125       2.674  14.929  36.933 -0.36 -0.00    +0.001     3.723
ATOM      8  CD2 0Q4 A 125       1.323  15.187  36.551 -0.40 -0.00    +0.007     3.723
ATOM      9  C3  0Q4 A 125      -0.689  17.026  34.574 -0.20 -0.27    +0.241     3.723
ATOM     10  O2  0Q4 A 125       0.240  17.706  34.131 -0.19 +0.41    -0.271     3.723
ATOM     11  N4  0Q4 A 125      -1.228  16.010  33.899 -0.01 +0.25    -0.346     3.723
ATOM     12  H4  0Q4 A 125      -1.970  15.501  34.291 +0.17 -0.10    +0.163     3.723
ATOM     13  CA4 0Q4 A 125      -0.799  15.631  32.550 -0.28 -0.11    +0.177     3.723
ATOM     14  CB4 0Q4 A 125      -1.450  16.592  31.517 -0.31 -0.04    +0.045     3.723
ATOM     15  CG5 0Q4 A 125      -1.239  16.282  30.048 -0.30 -0.08    +0.116     3.723
ATOM     16  CD3 0Q4 A 125      -2.380  15.455  29.436 -0.31 -0.09    +0.172     3.723
ATOM     17  OE1 0Q4 A 125      -2.842  15.800  28.333 +0.01 +0.29    -0.648     3.723
ATOM     18  OE2 0Q4 A 125      -2.827  14.447  30.046 -0.02 +0.26    -0.648     3.723
ATOM     19  C4  0Q4 A 125       0.716  15.582  32.324 -0.06 -0.15    +0.241     3.723
ATOM     20  O3  0Q4 A 125       1.446  14.815  32.955 -0.19 +0.11    -0.271     3.723
ATOM     21  N5  0Q4 A 125       1.202  16.521  31.529 -0.10 +0.31    -0.346     3.723
ATOM     22  H5  0Q4 A 125       0.606  17.191  31.128 +0.08 -0.20    +0.163     3.723
ATOM     23  CA5 0Q4 A 125       2.616  16.581  31.228 -0.27 -0.14    +0.172     3.723
ATOM     24  CB5 0Q4 A 125       2.801  17.387  29.957 -0.37 -0.04    +0.042     3.723
ATOM     25  C5  0Q4 A 125       3.540  17.151  32.334 -0.21 -0.20    +0.240     3.723
ATOM     26  O4  0Q4 A 125       3.275  18.196  32.931 -0.20 +0.30    -0.271     3.723
ATOM     27  N6  0Q4 A 125       4.654  16.455  32.537 -0.11 +0.23    -0.346     3.723
ATOM     28  H6  0Q4 A 125       4.803  15.662  31.994 +0.07 -0.10    +0.163     3.723
ATOM     29  CA6 0Q4 A 125       5.704  16.851  33.467 -0.23 -0.10    +0.176     3.723
ATOM     30  CB6 0Q4 A 125       5.052  17.243  34.818 -0.21 -0.02    +0.035     3.723
ATOM     31  CG6 0Q4 A 125       6.005  17.684  35.984 -0.28 -0.00    +0.002     3.723
ATOM     32  CD4 0Q4 A 125       5.767  16.928  37.350 -0.25 +0.00    -0.004     3.723
ATOM     33  CE  0Q4 A 125       5.637  17.907  38.498 -0.33 +0.00    +0.005     3.723
ATOM     34  C6  0Q4 A 125       6.597  15.613  33.653 -0.18 -0.14    +0.238     3.723
ATOM     35  O5  0Q4 A 125       6.353  14.780  34.574 -0.15 +0.15    -0.271     3.723
ATOM     36  N7  0Q4 A 125       7.576  15.510  32.872 -0.12 +0.27    -0.368     3.723
ATOM     37  H72 0Q4 A 125       7.773  16.181  32.130 +0.09 -0.14    +0.159     3.723
ATOM     38  H71 0Q4 A 125       8.168  14.689  32.996 -0.44 -0.15    +0.159     3.723
ATOM     39  N3  0Q4 A 125      -2.646  17.429  35.912 +0.01 +0.37    -0.387     3.723
ATOM     40  C2  0Q4 A 125      -3.283  17.506  34.757 -0.38 -0.08    +0.081     3.723
ATOM     41  H3  0Q4 A 125      -3.174  17.478  36.732 +0.33 -0.13    +0.159     3.723
ATOM     42  CA2 0Q4 A 125      -4.796  17.650  34.846 -0.23 -0.10    +0.123     3.723
ATOM     43  CB2 0Q4 A 125      -5.322  17.413  36.283 -0.33 -0.03    +0.034     3.723
ATOM     44  CG3 0Q4 A 125      -5.310  15.933  36.757 -0.51 +0.01    -0.020     3.723
ATOM     45  CD1 0Q4 A 125      -4.845  14.960  35.674 -0.35 -0.01    +0.009     3.723
ATOM     46  CD2 0Q4 A 125      -4.433  15.789  37.987 -0.46 -0.00    +0.009     3.723
ATOM     47  N2  0Q4 A 125      -5.577  16.866  33.907 -0.14 +0.29    -0.350     3.723
ATOM     48  C1  0Q4 A 125      -6.882  16.729  34.053 -0.31 -0.23    +0.241     3.723
ATOM     49  O1  0Q4 A 125      -7.498  17.383  34.885 -0.75 +0.30    -0.271     3.723
ATOM     50  HN2 0Q4 A 125      -5.115  16.399  33.175 +0.09 -0.14    +0.163     3.723
ATOM     51  CA1 0Q4 A 125      -7.590  15.806  33.027 -0.27 -0.18    +0.180     3.723
ATOM     52  CB1 0Q4 A 125      -7.202  16.111  31.490 -0.28 -0.01    +0.009     3.723
ATOM     53  CG1 0Q4 A 125      -7.186  17.613  31.195 -0.26 -0.02    +0.012     3.723
ATOM     54  CG2 0Q4 A 125      -5.803  15.554  31.159 -0.26 -0.01    +0.012     3.723
ATOM     55  N1  0Q4 A 125      -9.045  15.814  33.192 -0.13 +0.46    -0.346     3.723
ATOM     56  C   0Q4 A 125      -9.871  15.034  32.476 -0.20 -0.25    +0.249     3.723
ATOM     57  O   0Q4 A 125      -9.465  14.248  31.599 -0.21 +0.20    -0.271     3.723
ATOM     58  H1  0Q4 A 125      -9.385  16.416  33.888 -0.30 -0.33    +0.163     3.723
ATOM     59  CA  0Q4 A 125     -11.402  15.209  32.730 -0.11 -0.29    +0.274     3.723
ATOM     60  N   0Q4 A 125     -12.157  14.421  31.707 -0.12 +0.05    -0.067     3.723
ATOM     61  H   0Q4 A 125     -12.552  13.562  32.113 +0.09 -0.16    +0.275     3.723
ATOM     62  H2  0Q4 A 125     -12.919  15.059  31.364 +0.07 -0.19    +0.275     3.723
ATOM     63  HN3 0Q4 A 125     -11.538  14.164  30.923 +0.07 -0.16    +0.275     3.723
ATOM     64  CB  0Q4 A 125     -11.832  14.754  34.130 -0.25 -0.05    +0.044     3.723
ATOM     65  CG  0Q4 A 125     -13.132  13.885  34.224 -0.28 -0.02    +0.023     3.723
ATOM     66  CD  0Q4 A 125     -14.360  14.557  34.934 -0.18 -0.09    +0.138     3.723
ATOM     67  NE  0Q4 A 125     -14.090  15.880  35.512 -0.11 +0.22    -0.227     3.723
ATOM     68  CZ  0Q4 A 125     -14.083  16.152  36.820 +0.02 -0.65    +0.665     3.723
ATOM     69  NH1 0Q4 A 125     -14.316  15.180  37.686 -0.20 +0.14    -0.235     3.723
ATOM     70  NH2 0Q4 A 125     -13.967  17.414  37.258 -0.08 +0.33    -0.235     3.723
ATOM     71 HH11 0Q4 A 125     -14.490  14.251  37.364 +0.08 -0.09    +0.174     3.723
ATOM     72 HH12 0Q4 A 125     -14.313  15.373  38.669 +0.09 -0.08    +0.174     3.723
ATOM     73 HH21 0Q4 A 125     -13.881  18.170  36.611 -0.36 -0.37    +0.174     3.723
ATOM     74 HH22 0Q4 A 125     -13.966  17.594  38.244 +0.06 -0.18    +0.174     3.723
ATOM     75  HE  0Q4 A 125     -13.901  16.627  34.902 +0.05 -0.22    +0.177     3.723
TER
ENDMDL
MODEL        3
USER    Run = 3
USER    Cluster Rank = 2
USER    Number of conformations in this cluster = 1
USER  
USER    RMSD from reference structure       = 3.313 A
USER  
USER    Estimated Free Energy of Binding    =   -6.40 kcal/mol  [=(1)+(2)+(3)-(4)]
USER    Estimated Inhibition Constant, Ki   =   20.32 uM (micromolar)  [Temperature = 298.15 K]
USER    
USER    (1) Final Intermolecular Energy     =  -15.05 kcal/mol
USER        vdW + Hbond + desolv Energy     =  -12.88 kcal/mol
USER        Electrostatic Energy            =   -2.17 kcal/mol
USER    (2) Final Total Internal Energy     =   -4.01 kcal/mol
USER    (3) Torsional Free Energy           =   +8.65 kcal/mol
USER    (4) Unbound System's Energy  [=(2)] =   -4.01 kcal/mol
USER    
USER    
USER  
USER    DPF = dock.dpf
USER    NEWDPF move	lig1bai.pdbqt
USER    NEWDPF about	-1.190000 15.842000 33.892000
USER    NEWDPF tran0	-0.240411 15.014681 32.056173
USER    NEWDPF axisangle0	0.143969 -0.986682 0.075706 -166.605698
USER    NEWDPF quaternion0	0.142987 -0.979949 0.075189 -0.116621
USER    NEWDPF dihe0	67.38 -69.89 73.29 -97.75 77.65 -151.44 -85.54 107.08 152.81 -101.56 77.52 -179.32 -27.26 165.72 -151.29 -179.65 13.43 -52.93 -149.33 -33.92 -25.58 -34.55 179.77 -171.38 -65.56 107.28 69.08 162.46 -140.02 
USER  
USER                              x       y       z    vdW   Elec        q     RMS 
ATOM      1  CA3 0Q4 A 125      -0.277  16.974  33.362 -0.22 -0.19    +0.177     3.313
ATOM      2  CB3 0Q4 A 125      -0.282  17.074  34.917 -0.30 -0.08    +0.073     3.313
ATOM      3  CG4 0Q4 A 125       0.958  16.621  35.582 -0.27 +0.05    -0.056     3.313
ATOM      4  CD1 0Q4 A 125       1.865  17.540  36.091 -0.31 -0.01    +0.007     3.313
ATOM      5  CE1 0Q4 A 125       3.031  17.116  36.769 -0.27 -0.00    +0.001     3.313
ATOM      6  CZ1 0Q4 A 125       3.294  15.751  36.931 -0.28 -0.00    +0.000     3.313
ATOM      7  CE2 0Q4 A 125       2.396  14.818  36.415 -0.27 -0.00    +0.001     3.313
ATOM      8  CD2 0Q4 A 125       1.221  15.264  35.737 -0.34 -0.00    +0.007     3.313
ATOM      9  C3  0Q4 A 125       0.944  16.254  32.724 -0.19 -0.19    +0.241     3.313
ATOM     10  O2  0Q4 A 125       0.794  15.549  31.723 -0.00 +0.17    -0.271     3.313
ATOM     11  N4  0Q4 A 125       2.141  16.532  33.240 -0.09 +0.28    -0.346     3.313
ATOM     12  H4  0Q4 A 125       2.210  17.095  34.041 +0.09 -0.15    +0.163     3.313
ATOM     13  CA4 0Q4 A 125       3.390  15.992  32.696 -0.26 -0.12    +0.177     3.313
ATOM     14  CB4 0Q4 A 125       3.270  15.883  31.149 -0.28 -0.03    +0.045     3.313
ATOM     15  CG5 0Q4 A 125       3.520  17.141  30.340 -0.30 -0.10    +0.116     3.313
ATOM     16  CD3 0Q4 A 125       4.667  16.989  29.330 -0.40 -0.11    +0.172     3.313
ATOM     17  OE1 0Q4 A 125       5.687  17.689  29.475 -0.08 +0.45    -0.648     3.313
ATOM     18  OE2 0Q4 A 125       4.567  16.169  28.380 -0.00 +0.36    -0.648     3.313
ATOM     19  C4  0Q4 A 125       4.662  16.766  33.058 -0.20 -0.16    +0.241     3.313
ATOM     20  O3  0Q4 A 125       5.033  17.751  32.417 -0.24 +0.17    -0.271     3.313
ATOM     21  N5  0Q4 A 125       5.414  16.214  33.996 -0.07 +0.20    -0.346     3.313
ATOM     22  H5  0Q4 A 125       5.149  15.365  34.412 -0.05 -0.10    +0.163     3.313
ATOM     23  CA5 0Q4 A 125       6.639  16.848  34.434 -0.18 -0.08    +0.172     3.313
ATOM     24  CB5 0Q4 A 125       6.304  18.237  34.944 -0.28 -0.02    +0.042     3.313
ATOM     25  C5  0Q4 A 125       7.469  16.097  35.505 -0.11 -0.07    +0.240     3.313
ATOM     26  O4  0Q4 A 125       8.547  16.530  35.917 -0.11 +0.02    -0.271     3.313
ATOM     27  N6  0Q4 A 125       6.953  14.935  35.892 -0.07 +0.10    -0.346     3.313
ATOM     28  H6  0Q4 A 125       6.116  14.650  35.487 +0.05 -0.07    +0.163     3.313
ATOM     29  CA6 0Q4 A 125       7.603  14.024  36.825 -0.17 -0.03    +0.176     3.313
ATOM     30  CB6 0Q4 A 125       8.411  14.857  37.853 -0.13 +0.00    +0.035     3.313
ATOM     31  CG6 0Q4 A 125       7.607  15.777  38.837 -0.15 +0.00    +0.002     3.313
ATOM     32  CD4 0Q4 A 125       6.120  16.073  38.394 -0.24 -0.00    -0.004     3.313
ATOM     33  CE  0Q4 A 125       5.839  17.561  38.395 -0.31 +0.00    +0.005     3.313
ATOM     34  C6  0Q4 A 125       6.472  13.264  37.536 -0.18 -0.04    +0.238     3.313
ATOM     35  O5  0Q4 A 125       6.649  12.791  38.697 -0.12 +0.04    -0.271     3.313
ATOM     36  N7  0Q4 A 125       5.405  13.119  36.888 -0.15 +0.07    -0.368     3.313
ATOM     37  H72 0Q4 A 125       5.262  13.500  35.953 +0.04 -0.05    +0.159     3.313
ATOM     38  H71 0Q4 A 125       4.655  12.615  37.361 +0.06 -0.03    +0.159     3.313
ATOM     39  N3  0Q4 A 125      -1.446  16.175  32.977 -0.06 +0.30    -0.387     3.313
ATOM     40  C2  0Q4 A 125      -2.542  16.084  33.709 -0.16 -0.06    +0.081     3.313
ATOM     41  H3  0Q4 A 125      -1.423  15.699  32.124 +0.09 -0.10    +0.159     3.313
ATOM     42  CA2 0Q4 A 125      -3.664  15.242  33.116 -0.21 -0.09    +0.123     3.313
ATOM     43  CB2 0Q4 A 125      -3.622  15.220  31.569 -0.26 -0.02    +0.034     3.313
ATOM     44  CG3 0Q4 A 125      -3.936  16.577  30.878 -0.25 +0.02    -0.020     3.313
ATOM     45  CD1 0Q4 A 125      -2.738  17.526  30.848 -0.22 -0.01    +0.009     3.313
ATOM     46  CD2 0Q4 A 125      -4.435  16.337  29.465 -0.25 -0.01    +0.009     3.313
ATOM     47  N2  0Q4 A 125      -5.010  15.552  33.562 -0.11 +0.29    -0.350     3.313
ATOM     48  C1  0Q4 A 125      -5.268  16.662  34.230 -0.26 -0.19    +0.241     3.313
ATOM     49  O1  0Q4 A 125      -4.420  17.537  34.355 -0.26 +0.24    -0.271     3.313
ATOM     50  HN2 0Q4 A 125      -5.729  14.903  33.396 -0.36 -0.16    +0.163     3.313
ATOM     51  CA1 0Q4 A 125      -6.730  16.841  34.716 -0.39 -0.16    +0.180     3.313
ATOM     52  CB1 0Q4 A 125      -7.262  15.642  35.656 -0.50 -0.01    +0.009     3.313
ATOM     53  CG1 0Q4 A 125      -7.830  16.165  36.978 -0.53 -0.01    +0.012     3.313
ATOM     54  CG2 0Q4 A 125      -8.379  14.849  34.948 -0.18 -0.01    +0.012     3.313
ATOM     55  N1  0Q4 A 125      -7.656  17.059  33.603 -0.21 +0.40    -0.346     3.313
ATOM     56  C   0Q4 A 125      -7.719  16.254  32.530 -0.21 -0.27    +0.249     3.313
ATOM     57  O   0Q4 A 125      -6.980  15.262  32.387 -0.18 +0.25    -0.271     3.313
ATOM     58  H1  0Q4 A 125      -8.258  17.828  33.701 +0.04 -0.22    +0.163     3.313
ATOM     59  CA  0Q4 A 125      -8.719  16.662  31.401 +0.08 -0.41    +0.274     3.313
ATOM     60  N   0Q4 A 125      -7.953  17.276  30.272 -0.16 +0.09    -0.067     3.313
ATOM     61  H   0Q4 A 125      -7.750  16.584  29.537 +0.10 -0.24    +0.275     3.313
ATOM     62  H2  0Q4 A 125      -8.563  18.048  29.903 -0.21 -0.58    +0.275     3.313
ATOM     63  HN3 0Q4 A 125      -7.061  17.668  30.614 +0.13 -0.33    +0.275     3.313
ATOM     64  CB  0Q4 A 125      -9.533  15.476  30.867 -0.20 -0.04    +0.044     3.313
ATOM     65  CG  0Q4 A 125      -9.504  14.158  31.714 -0.26 -0.02    +0.023     3.313
ATOM     66  CD  0Q4 A 125     -10.837  13.786  32.453 -0.25 -0.09    +0.138     3.313
ATOM     67  NE  0Q4 A 125     -11.063  14.502  33.716 -0.16 +0.23    -0.227     3.313
ATOM     68  CZ  0Q4 A 125     -11.332  13.916  34.885 +0.05 -0.61    +0.665     3.313
ATOM     69  NH1 0Q4 A 125     -11.391  12.597  34.952 -0.06 +0.17    -0.235     3.313
ATOM     70  NH2 0Q4 A 125     -11.664  14.647  35.960 -0.20 +0.29    -0.235     3.313
ATOM     71 HH11 0Q4 A 125     -11.231  12.045  34.135 -0.37 -0.12    +0.174     3.313
ATOM     72 HH12 0Q4 A 125     -11.592  12.147  35.824 -0.34 -0.14    +0.174     3.313
ATOM     73 HH21 0Q4 A 125     -11.712  15.643  35.901 -0.22 -0.40    +0.174     3.313
ATOM     74 HH22 0Q4 A 125     -11.864  14.185  36.826 +0.11 -0.15    +0.174     3.313
ATOM     75  HE  0Q4 A 125     -11.017  15.484  33.711 -0.05 -0.27    +0.177     3.313
TER
ENDMDL
MODEL       10
USER    Run = 10
USER    Cluster Rank = 3
USER    Number of conformations in this cluster = 1
USER  
USER    RMSD from reference structure       = 3.027 A
USER  
USER    Estimated Free Energy of Binding    =   -6.15 kcal/mol  [=(1)+(2)+(3)-(4)]
USER    Estimated Inhibition Constant, Ki   =   30.89 uM (micromolar)  [Temperature = 298.15 K]
USER    
USER    (1) Final Intermolecular Energy     =  -14.80 kcal/mol
USER        vdW + Hbond + desolv Energy     =  -13.10 kcal/mol
USER        Electrostatic Energy            =   -1.70 kcal/mol
USER    (2) Final Total Internal Energy     =   -6.78 kcal/mol
USER    (3) Torsional Free Energy           =   +8.65 kcal/mol
USER    (4) Unbound System's Energy  [=(2)] =   -6.78 kcal/mol
USER    
USER    
USER  
USER    DPF = dock.dpf
USER    NEWDPF move	lig1bai.pdbqt
USER    NEWDPF about	-1.190000 15.842000 33.892000
USER    NEWDPF tran0	-2.166832 16.296918 32.066391
USER    NEWDPF axisangle0	-0.554566 -0.339122 0.759904 170.086855
USER    NEWDPF quaternion0	-0.552492 -0.337853 0.757062 0.086401
USER    NEWDPF dihe0	152.24 8.91 -3.75 -180.00 -68.12 -103.93 61.54 92.27 177.54 -49.57 -16.97 49.25 54.01 1.08 128.21 76.40 -32.96 -120.02 -71.06 -179.96 56.30 20.30 -82.97 -133.20 -160.18 -64.89 133.04 -108.99 -39.92 
USER  
USER                              x       y       z    vdW   Elec        q     RMS 
ATOM      1  CA3 0Q4 A 125       0.004  15.931  31.231 -0.07 -0.13    +0.177     3.027
ATOM      2  CB3 0Q4 A 125       1.002  16.999  30.692 -0.33 -0.08    +0.073     3.027
ATOM      3  CG4 0Q4 A 125       2.432  16.692  30.907 -0.30 +0.05    -0.056     3.027
ATOM      4  CD1 0Q4 A 125       2.833  15.897  31.972 -0.25 -0.00    +0.007     3.027
ATOM      5  CE1 0Q4 A 125       4.194  15.561  32.159 -0.33 -0.00    +0.001     3.027
ATOM      6  CZ1 0Q4 A 125       5.165  16.035  31.271 -0.36 -0.00    +0.000     3.027
ATOM      7  CE2 0Q4 A 125       4.776  16.843  30.204 -0.39 -0.00    +0.001     3.027
ATOM      8  CD2 0Q4 A 125       3.398  17.169  30.027 -0.35 -0.01    +0.007     3.027
ATOM      9  C3  0Q4 A 125      -0.453  16.101  32.706 -0.20 -0.18    +0.241     3.027
ATOM     10  O2  0Q4 A 125      -0.796  15.117  33.366 -0.22 +0.13    -0.271     3.027
ATOM     11  N4  0Q4 A 125      -0.344  17.321  33.232 -0.09 +0.44    -0.346     3.027
ATOM     12  H4  0Q4 A 125      -0.072  18.076  32.665 +0.10 -0.28    +0.163     3.027
ATOM     13  CA4 0Q4 A 125      -0.662  17.620  34.631 -0.17 -0.27    +0.177     3.027
ATOM     14  CB4 0Q4 A 125      -2.149  17.260  34.906 -0.38 -0.05    +0.045     3.027
ATOM     15  CG5 0Q4 A 125      -2.454  16.477  36.168 -0.10 -0.08    +0.116     3.027
ATOM     16  CD3 0Q4 A 125      -3.955  16.411  36.490 -0.14 -0.11    +0.172     3.027
ATOM     17  OE1 0Q4 A 125      -4.660  17.411  36.257 +0.28 +0.48    -0.648     3.027
ATOM     18  OE2 0Q4 A 125      -4.451  15.361  36.976 -0.01 +0.35    -0.648     3.027
ATOM     19  C4  0Q4 A 125       0.232  16.943  35.675 -0.22 -0.24    +0.241     3.027
ATOM     20  O3  0Q4 A 125       0.768  15.852  35.467 -0.26 +0.15    -0.271     3.027
ATOM     21  N5  0Q4 A 125       0.261  17.525  36.862 -0.14 +0.37    -0.346     3.027
ATOM     22  H5  0Q4 A 125      -0.269  18.336  37.032 -0.20 -0.26    +0.163     3.027
ATOM     23  CA5 0Q4 A 125       1.072  16.989  37.934 -0.34 -0.10    +0.172     3.027
ATOM     24  CB5 0Q4 A 125       0.251  15.958  38.685 -0.52 -0.02    +0.042     3.027
ATOM     25  C5  0Q4 A 125       2.433  16.366  37.534 -0.24 -0.10    +0.240     3.027
ATOM     26  O4  0Q4 A 125       2.605  15.146  37.493 -0.24 +0.07    -0.271     3.027
ATOM     27  N6  0Q4 A 125       3.398  17.249  37.299 -0.08 +0.16    -0.346     3.027
ATOM     28  H6  0Q4 A 125       3.186  18.193  37.391 +0.08 -0.10    +0.163     3.027
ATOM     29  CA6 0Q4 A 125       4.775  16.888  36.990 -0.17 -0.05    +0.176     3.027
ATOM     30  CB6 0Q4 A 125       5.253  15.822  38.010 -0.23 -0.01    +0.035     3.027
ATOM     31  CG6 0Q4 A 125       6.766  15.839  38.425 -0.21 +0.00    +0.002     3.027
ATOM     32  CD4 0Q4 A 125       7.688  14.867  37.587 -0.16 +0.00    -0.004     3.027
ATOM     33  CE  0Q4 A 125       7.019  13.523  37.385 -0.24 -0.00    +0.005     3.027
ATOM     34  C6  0Q4 A 125       4.751  16.287  35.574 -0.14 -0.11    +0.238     3.027
ATOM     35  O5  0Q4 A 125       5.296  16.899  34.610 -0.14 +0.15    -0.271     3.027
ATOM     36  N7  0Q4 A 125       4.141  15.197  35.443 -0.09 +0.16    -0.368     3.027
ATOM     37  H72 0Q4 A 125       3.702  14.703  36.220 +0.07 -0.05    +0.159     3.027
ATOM     38  H71 0Q4 A 125       4.125  14.798  34.504 -0.24 -0.09    +0.159     3.027
ATOM     39  N3  0Q4 A 125      -1.220  16.040  30.428 -0.09 +0.26    -0.387     3.027
ATOM     40  C2  0Q4 A 125      -1.774  15.018  29.800 -0.24 -0.04    +0.081     3.027
ATOM     41  H3  0Q4 A 125      -1.660  16.909  30.368 +0.10 -0.14    +0.159     3.027
ATOM     42  CA2 0Q4 A 125      -3.068  15.323  29.057 -0.32 -0.06    +0.123     3.027
ATOM     43  CB2 0Q4 A 125      -2.866  16.382  27.946 -0.05 -0.02    +0.034     3.027
ATOM     44  CG3 0Q4 A 125      -2.883  17.860  28.428 -0.34 +0.01    -0.020     3.027
ATOM     45  CD1 0Q4 A 125      -3.138  17.998  29.929 -0.24 -0.01    +0.009     3.027
ATOM     46  CD2 0Q4 A 125      -1.575  18.539  28.066 -0.29 -0.01    +0.009     3.027
ATOM     47  N2  0Q4 A 125      -4.213  15.684  29.871 -0.07 +0.21    -0.350     3.027
ATOM     48  C1  0Q4 A 125      -5.444  15.572  29.405 -0.13 -0.14    +0.241     3.027
ATOM     49  O1  0Q4 A 125      -5.667  15.014  28.338 -0.12 +0.12    -0.271     3.027
ATOM     50  HN2 0Q4 A 125      -4.062  16.054  30.770 +0.08 -0.12    +0.163     3.027
ATOM     51  CA1 0Q4 A 125      -6.576  16.060  30.346 -0.15 -0.14    +0.180     3.027
ATOM     52  CB1 0Q4 A 125      -7.053  17.577  30.070 -0.25 -0.01    +0.009     3.027
ATOM     53  CG1 0Q4 A 125      -6.008  18.367  29.277 -0.31 -0.01    +0.012     3.027
ATOM     54  CG2 0Q4 A 125      -8.367  17.598  29.263 -0.11 -0.01    +0.012     3.027
ATOM     55  N1  0Q4 A 125      -6.229  15.889  31.758 -0.07 +0.30    -0.346     3.027
ATOM     56  C   0Q4 A 125      -6.671  16.706  32.728 -0.23 -0.24    +0.249     3.027
ATOM     57  O   0Q4 A 125      -7.402  17.688  32.501 -0.67 +0.32    -0.271     3.027
ATOM     58  H1  0Q4 A 125      -5.665  15.112  31.961 -0.23 -0.15    +0.163     3.027
ATOM     59  CA  0Q4 A 125      -6.157  16.422  34.176 -0.24 -0.23    +0.274     3.027
ATOM     60  N   0Q4 A 125      -6.841  17.355  35.124 -0.49 +0.06    -0.067     3.027
ATOM     61  H   0Q4 A 125      -7.365  16.839  35.845 +0.16 -0.29    +0.275     3.027
ATOM     62  H2  0Q4 A 125      -6.075  17.930  35.558 +0.19 -0.21    +0.275     3.027
ATOM     63  HN3 0Q4 A 125      -7.495  17.970  34.615 +0.14 -0.26    +0.275     3.027
ATOM     64  CB  0Q4 A 125      -6.408  14.978  34.627 -0.43 -0.03    +0.044     3.027
ATOM     65  CG  0Q4 A 125      -7.877  14.444  34.512 -0.29 -0.02    +0.023     3.027
ATOM     66  CD  0Q4 A 125      -8.467  14.361  33.060 -0.38 -0.11    +0.138     3.027
ATOM     67  NE  0Q4 A 125      -9.804  13.759  32.971 -0.29 +0.15    -0.227     3.027
ATOM     68  CZ  0Q4 A 125     -10.922  14.316  33.445 +0.00 -0.61    +0.665     3.027
ATOM     69  NH1 0Q4 A 125     -10.860  15.501  34.028 +0.09 +0.41    -0.235     3.027
ATOM     70  NH2 0Q4 A 125     -12.079  13.637  33.449 -0.16 +0.17    -0.235     3.027
ATOM     71 HH11 0Q4 A 125      -9.985  15.977  34.107 -0.45 -0.39    +0.174     3.027
ATOM     72 HH12 0Q4 A 125     -11.692  15.928  34.386 -0.44 -0.37    +0.174     3.027
ATOM     73 HH21 0Q4 A 125     -12.121  12.705  33.094 +0.07 -0.10    +0.174     3.027
ATOM     74 HH22 0Q4 A 125     -12.904  14.075  33.811 +0.08 -0.13    +0.174     3.027
ATOM     75  HE  0Q4 A 125      -9.895  12.882  32.535 +0.05 -0.09    +0.177     3.027
TER
ENDMDL
MODEL        6
USER    Run = 6
USER    Cluster Rank = 4
USER    Number of conformations in this cluster = 1
USER  
USER    RMSD from reference structure       = 2.170 A
USER  
USER    Estimated Free Energy of Binding    =   -5.78 kcal/mol  [=(1)+(2)+(3)-(4)]
USER    Estimated Inhibition Constant, Ki   =   57.61 uM (micromolar)  [Temperature = 298.15 K]
USER    
USER    (1) Final Intermolecular Energy     =  -14.43 kcal/mol
USER        vdW + Hbond + desolv Energy     =  -14.76 kcal/mol
USER        Electrostatic Energy            =   +0.32 kcal/mol
USER    (2) Final Total Internal Energy     =   -5.23 kcal/mol
USER    (3) Torsional Free Energy           =   +8.65 kcal/mol
USER    (4) Unbound System's Energy  [=(2)] =   -5.23 kcal/mol
USER    
USER    
USER  
USER    DPF = dock.dpf
USER    NEWDPF move	lig1bai.pdbqt
USER    NEWDPF about	-1.190000 15.842000 33.892000
USER    NEWDPF tran0	-0.598544 16.510002 33.623787
USER    NEWDPF axisangle0	0.120941 -0.027630 0.992275 22.296609
USER    NEWDPF quaternion0	0.023384 -0.005342 0.191856 0.981130
USER    NEWDPF dihe0	27.27 -179.86 -46.50 -55.75 -104.55 -26.14 -102.50 -36.91 -179.78 178.57 142.00 -179.37 -32.74 -36.07 6.92 -11.99 -149.49 -5.01 -127.63 -173.48 134.24 154.57 142.58 -172.25 -162.19 153.10 -176.94 -130.81 138.44 
USER  
USER                              x       y       z    vdW   Elec        q     RMS 
ATOM      1  CA3 0Q4 A 125      -0.126  18.088  31.941 -0.29 -0.30    +0.177     2.170
ATOM      2  CB3 0Q4 A 125       0.154  17.809  30.435 -0.31 -0.11    +0.073     2.170
ATOM      3  CG4 0Q4 A 125      -0.956  17.175  29.694 -0.32 +0.05    -0.056     2.170
ATOM      4  CD1 0Q4 A 125      -1.745  17.918  28.826 -0.39 -0.01    +0.007     2.170
ATOM      5  CE1 0Q4 A 125      -2.780  17.310  28.079 -0.11 -0.00    +0.001     2.170
ATOM      6  CZ1 0Q4 A 125      -3.032  15.940  28.210 -0.31 -0.00    +0.000     2.170
ATOM      7  CE2 0Q4 A 125      -2.253  15.184  29.086 -0.39 -0.00    +0.001     2.170
ATOM      8  CD2 0Q4 A 125      -1.209  15.814  29.829 -0.23 -0.00    +0.007     2.170
ATOM      9  C3  0Q4 A 125      -1.509  17.627  32.480 -0.23 -0.31    +0.241     2.170
ATOM     10  O2  0Q4 A 125      -2.411  18.449  32.657 +0.09 +0.44    -0.271     2.170
ATOM     11  N4  0Q4 A 125      -1.689  16.314  32.623 -0.08 +0.28    -0.346     2.170
ATOM     12  H4  0Q4 A 125      -0.939  15.697  32.477 +0.09 -0.11    +0.163     2.170
ATOM     13  CA4 0Q4 A 125      -2.962  15.723  33.046 -0.22 -0.12    +0.177     2.170
ATOM     14  CB4 0Q4 A 125      -3.316  16.238  34.470 -0.22 -0.03    +0.045     2.170
ATOM     15  CG5 0Q4 A 125      -2.368  17.235  35.106 -0.34 -0.12    +0.116     2.170
ATOM     16  CD3 0Q4 A 125      -1.641  16.676  36.339 -0.28 -0.14    +0.172     2.170
ATOM     17  OE1 0Q4 A 125      -0.415  16.865  36.446 +0.01 +0.58    -0.648     2.170
ATOM     18  OE2 0Q4 A 125      -2.284  16.045  37.218 +0.01 +0.36    -0.648     2.170
ATOM     19  C4  0Q4 A 125      -4.148  15.957  32.105 -0.19 -0.19    +0.241     2.170
ATOM     20  O3  0Q4 A 125      -4.583  15.069  31.369 -0.17 +0.20    -0.271     2.170
ATOM     21  N5  0Q4 A 125      -4.566  17.209  32.019 +0.04 +0.36    -0.346     2.170
ATOM     22  H5  0Q4 A 125      -4.124  17.919  32.535 -0.44 -0.22    +0.163     2.170
ATOM     23  CA5 0Q4 A 125      -5.683  17.562  31.169 -0.09 -0.18    +0.172     2.170
ATOM     24  CB5 0Q4 A 125      -5.178  17.701  29.746 -0.23 -0.03    +0.042     2.170
ATOM     25  C5  0Q4 A 125      -6.904  16.608  31.189 -0.16 -0.23    +0.240     2.170
ATOM     26  O4  0Q4 A 125      -7.738  16.598  30.281 -0.11 +0.28    -0.271     2.170
ATOM     27  N6  0Q4 A 125      -7.000  15.854  32.279 -0.09 +0.32    -0.346     2.170
ATOM     28  H6  0Q4 A 125      -6.318  15.953  32.965 +0.07 -0.15    +0.163     2.170
ATOM     29  CA6 0Q4 A 125      -8.109  14.947  32.547 -0.30 -0.16    +0.176     2.170
ATOM     30  CB6 0Q4 A 125      -8.014  14.465  34.017 -0.44 -0.03    +0.035     2.170
ATOM     31  CG6 0Q4 A 125      -7.806  15.553  35.128 -0.48 -0.00    +0.002     2.170
ATOM     32  CD4 0Q4 A 125      -6.750  15.169  36.237 -0.41 +0.00    -0.004     2.170
ATOM     33  CE  0Q4 A 125      -6.821  16.124  37.411 -0.64 -0.00    +0.005     2.170
ATOM     34  C6  0Q4 A 125      -9.392  15.771  32.345 -0.18 -0.30    +0.238     2.170
ATOM     35  O5  0Q4 A 125      -9.898  16.414  33.311 -0.18 +0.51    -0.271     2.170
ATOM     36  N7  0Q4 A 125      -9.904  15.732  31.199 -0.06 +0.43    -0.368     2.170
ATOM     37  H72 0Q4 A 125      -9.496  15.214  30.420 +0.04 -0.14    +0.159     2.170
ATOM     38  H71 0Q4 A 125     -10.754  16.278  31.065 -0.06 -0.23    +0.159     2.170
ATOM     39  N3  0Q4 A 125       0.866  17.331  32.713 -0.07 +0.47    -0.387     2.170
ATOM     40  C2  0Q4 A 125       1.046  16.028  32.591 -0.28 -0.06    +0.081     2.170
ATOM     41  H3  0Q4 A 125       1.438  17.817  33.338 +0.09 -0.22    +0.159     2.170
ATOM     42  CA2 0Q4 A 125       2.156  15.431  33.447 -0.28 -0.06    +0.123     2.170
ATOM     43  CB2 0Q4 A 125       2.213  16.068  34.856 -0.30 -0.02    +0.034     2.170
ATOM     44  CG3 0Q4 A 125       2.698  15.123  35.992 -0.27 +0.01    -0.020     2.170
ATOM     45  CD1 0Q4 A 125       3.921  15.658  36.735 -0.29 -0.00    +0.009     2.170
ATOM     46  CD2 0Q4 A 125       1.569  14.872  36.975 -0.47 -0.00    +0.009     2.170
ATOM     47  N2  0Q4 A 125       3.485  15.419  32.864 -0.13 +0.22    -0.350     2.170
ATOM     48  C1  0Q4 A 125       4.075  16.539  32.487 -0.22 -0.17    +0.241     2.170
ATOM     49  O1  0Q4 A 125       3.591  17.631  32.759 -0.22 +0.24    -0.271     2.170
ATOM     50  HN2 0Q4 A 125       3.933  14.556  32.715 -0.43 -0.12    +0.163     2.170
ATOM     51  CA1 0Q4 A 125       5.462  16.385  31.811 -0.27 -0.11    +0.180     2.170
ATOM     52  CB1 0Q4 A 125       5.459  15.425  30.513 -0.49 -0.01    +0.009     2.170
ATOM     53  CG1 0Q4 A 125       4.896  14.038  30.833 -0.48 -0.01    +0.012     2.170
ATOM     54  CG2 0Q4 A 125       4.597  16.032  29.388 -0.51 -0.01    +0.012     2.170
ATOM     55  N1  0Q4 A 125       6.490  15.950  32.758 -0.10 +0.22    -0.346     2.170
ATOM     56  C   0Q4 A 125       6.207  15.448  33.972 -0.08 -0.15    +0.249     2.170
ATOM     57  O   0Q4 A 125       5.043  15.327  34.397 -0.13 +0.16    -0.271     2.170
ATOM     58  H1  0Q4 A 125       7.414  16.023  32.438 +0.10 -0.12    +0.163     2.170
ATOM     59  CA  0Q4 A 125       7.422  15.089  34.886 -0.16 -0.12    +0.274     2.170
ATOM     60  N   0Q4 A 125       7.702  13.625  34.769 -0.37 +0.03    -0.067     2.170
ATOM     61  H   0Q4 A 125       8.673  13.451  34.477 -0.38 -0.17    +0.275     2.170
ATOM     62  H2  0Q4 A 125       7.520  13.224  35.723 +0.11 -0.06    +0.275     2.170
ATOM     63  HN3 0Q4 A 125       7.066  13.192  34.080 -0.30 -0.12    +0.275     2.170
ATOM     64  CB  0Q4 A 125       8.692  15.872  34.528 -0.15 -0.03    +0.044     2.170
ATOM     65  CG  0Q4 A 125       8.624  17.432  34.659 -0.30 -0.01    +0.023     2.170
ATOM     66  CD  0Q4 A 125       7.441  18.135  33.904 -0.09 -0.04    +0.138     2.170
ATOM     67  NE  0Q4 A 125       6.189  18.226  34.667 -0.18 +0.10    -0.227     2.170
ATOM     68  CZ  0Q4 A 125       6.114  18.338  35.995 +0.06 -0.18    +0.665     2.170
ATOM     69  NH1 0Q4 A 125       7.228  18.391  36.706 -0.07 -0.08    -0.235     2.170
ATOM     70  NH2 0Q4 A 125       4.931  18.273  36.625 -0.10 +0.11    -0.235     2.170
ATOM     71 HH11 0Q4 A 125       8.116  18.352  36.252 +0.05 +0.07    +0.174     2.170
ATOM     72 HH12 0Q4 A 125       7.183  18.476  37.703 +0.09 +0.15    +0.174     2.170
ATOM     73 HH21 0Q4 A 125       4.088  18.142  36.107 -0.31 -0.14    +0.174     2.170
ATOM     74 HH22 0Q4 A 125       4.900  18.358  37.623 +0.07 -0.04    +0.174     2.170
ATOM     75  HE  0Q4 A 125       5.339  18.201  34.174 -0.34 -0.13    +0.177     2.170
TER
ENDMDL
MODEL        7
USER    Run = 7
USER    Cluster Rank = 5
USER    Number of conformations in this cluster = 1
USER  
USER    RMSD from reference structure       = 2.085 A
USER  
USER    Estimated Free Energy of Binding    =   -4.95 kcal/mol  [=(1)+(2)+(3)-(4)]
USER    Estimated Inhibition Constant, Ki   =  236.99 uM (micromolar)  [Temperature = 298.15 K]
USER    
USER    (1) Final Intermolecular Energy     =  -13.60 kcal/mol
USER        vdW + Hbond + desolv Energy     =  -13.98 kcal/mol
USER        Electrostatic Energy            =   +0.38 kcal/mol
USER    (2) Final Total Internal Energy     =   -5.11 kcal/mol
USER    (3) Torsional Free Energy           =   +8.65 kcal/mol
USER    (4) Unbound System's Energy  [=(2)] =   -5.11 kcal/mol
USER    
USER    
USER  
USER    DPF = dock.dpf
USER    NEWDPF move	lig1bai.pdbqt
USER    NEWDPF about	-1.190000 15.842000 33.892000
USER    NEWDPF tran0	-1.311336 16.606689 34.585919
USER    NEWDPF axisangle0	-0.198236 -0.287841 -0.936937 -24.466377
USER    NEWDPF quaternion0	-0.042004 -0.060991 -0.198528 -0.977293
USER    NEWDPF dihe0	-148.52 -47.50 -180.00 -12.88 149.31 -76.77 -31.12 125.15 -115.89 9.01 158.99 -165.08 -2.95 -146.49 -82.98 -179.58 -6.71 -61.54 -172.34 102.98 165.36 -60.79 91.53 79.17 -141.16 -46.20 171.42 -98.05 150.91 
USER  
USER                              x       y       z    vdW   Elec        q     RMS 
ATOM      1  CA3 0Q4 A 125      -0.612  18.073  32.881 -0.32 -0.30    +0.177     2.085
ATOM      2  CB3 0Q4 A 125      -0.153  17.697  31.440 -0.34 -0.11    +0.073     2.085
ATOM      3  CG4 0Q4 A 125      -1.223  17.685  30.421 -0.33 +0.07    -0.056     2.085
ATOM      4  CD1 0Q4 A 125      -1.174  18.544  29.332 -0.43 -0.01    +0.007     2.085
ATOM      5  CE1 0Q4 A 125      -2.170  18.508  28.329 -0.06 -0.00    +0.001     2.085
ATOM      6  CZ1 0Q4 A 125      -3.233  17.603  28.423 -0.29 -0.00    +0.000     2.085
ATOM      7  CE2 0Q4 A 125      -3.299  16.741  29.517 -0.26 -0.00    +0.001     2.085
ATOM      8  CD2 0Q4 A 125      -2.283  16.788  30.519 -0.27 -0.01    +0.007     2.085
ATOM      9  C3  0Q4 A 125      -2.057  17.656  33.272 -0.25 -0.31    +0.241     2.085
ATOM     10  O2  0Q4 A 125      -2.912  18.517  33.495 -0.06 +0.42    -0.271     2.085
ATOM     11  N4  0Q4 A 125      -2.336  16.353  33.239 -0.09 +0.29    -0.346     2.085
ATOM     12  H4  0Q4 A 125      -1.621  15.704  33.064 +0.09 -0.11    +0.163     2.085
ATOM     13  CA4 0Q4 A 125      -3.672  15.814  33.507 -0.23 -0.13    +0.177     2.085
ATOM     14  CB4 0Q4 A 125      -4.309  16.591  34.694 -0.38 -0.03    +0.045     2.085
ATOM     15  CG5 0Q4 A 125      -5.561  16.006  35.317 -0.38 -0.08    +0.116     2.085
ATOM     16  CD3 0Q4 A 125      -6.322  17.009  36.197 -0.46 -0.14    +0.172     2.085
ATOM     17  OE1 0Q4 A 125      -6.082  17.035  37.418 -0.06 +0.47    -0.648     2.085
ATOM     18  OE2 0Q4 A 125      -7.167  17.788  35.681 -0.66 +0.58    -0.648     2.085
ATOM     19  C4  0Q4 A 125      -4.638  15.813  32.317 -0.17 -0.20    +0.241     2.085
ATOM     20  O3  0Q4 A 125      -5.621  16.556  32.273 -0.17 +0.24    -0.271     2.085
ATOM     21  N5  0Q4 A 125      -4.440  14.856  31.426 +0.01 +0.25    -0.346     2.085
ATOM     22  H5  0Q4 A 125      -3.713  14.205  31.547 -0.11 -0.08    +0.163     2.085
ATOM     23  CA5 0Q4 A 125      -5.279  14.748  30.252 -0.22 -0.11    +0.172     2.085
ATOM     24  CB5 0Q4 A 125      -5.062  13.381  29.632 -0.35 -0.02    +0.042     2.085
ATOM     25  C5  0Q4 A 125      -6.797  14.983  30.456 -0.19 -0.17    +0.240     2.085
ATOM     26  O4  0Q4 A 125      -7.527  15.365  29.539 -0.10 +0.18    -0.271     2.085
ATOM     27  N6  0Q4 A 125      -7.225  14.793  31.700 -0.12 +0.30    -0.346     2.085
ATOM     28  H6  0Q4 A 125      -6.573  14.529  32.372 -0.44 -0.17    +0.163     2.085
ATOM     29  CA6 0Q4 A 125      -8.593  15.036  32.137 -0.27 -0.16    +0.176     2.085
ATOM     30  CB6 0Q4 A 125      -9.337  13.678  32.226 -0.31 -0.02    +0.035     2.085
ATOM     31  CG6 0Q4 A 125      -9.922  13.259  33.621 -0.41 -0.00    +0.002     2.085
ATOM     32  CD4 0Q4 A 125     -11.398  13.750  33.890 -0.38 +0.00    -0.004     2.085
ATOM     33  CE  0Q4 A 125     -12.071  14.180  32.602 -0.22 -0.00    +0.005     2.085
ATOM     34  C6  0Q4 A 125      -8.488  15.670  33.534 -0.26 -0.28    +0.238     2.085
ATOM     35  O5  0Q4 A 125      -8.141  14.971  34.530 -0.30 +0.26    -0.271     2.085
ATOM     36  N7  0Q4 A 125      -8.796  16.885  33.618 -0.09 +0.62    -0.368     2.085
ATOM     37  H72 0Q4 A 125      -9.075  17.449  32.815 -0.04 -0.31    +0.159     2.085
ATOM     38  H71 0Q4 A 125      -8.726  17.306  34.544 -0.36 -0.33    +0.159     2.085
ATOM     39  N3  0Q4 A 125       0.266  17.358  33.814 -0.06 +0.50    -0.387     2.085
ATOM     40  C2  0Q4 A 125       0.628  16.097  33.656 -0.30 -0.06    +0.081     2.085
ATOM     41  H3  0Q4 A 125       0.618  17.843  34.585 -0.01 -0.25    +0.159     2.085
ATOM     42  CA2 0Q4 A 125       1.582  15.547  34.708 -0.29 -0.06    +0.123     2.085
ATOM     43  CB2 0Q4 A 125       0.884  15.333  36.074 -0.39 -0.01    +0.034     2.085
ATOM     44  CG3 0Q4 A 125       0.056  16.543  36.591 -0.43 +0.01    -0.020     2.085
ATOM     45  CD1 0Q4 A 125      -0.885  16.177  37.739 -0.48 -0.00    +0.009     2.085
ATOM     46  CD2 0Q4 A 125       0.986  17.660  37.025 -0.43 -0.01    +0.009     2.085
ATOM     47  N2  0Q4 A 125       2.820  16.277  34.903 -0.08 +0.22    -0.350     2.085
ATOM     48  C1  0Q4 A 125       3.961  15.642  35.109 -0.17 -0.12    +0.241     2.085
ATOM     49  O1  0Q4 A 125       4.040  14.427  34.984 +0.31 +0.12    -0.271     2.085
ATOM     50  HN2 0Q4 A 125       2.798  17.260  34.921 +0.07 -0.14    +0.163     2.085
ATOM     51  CA1 0Q4 A 125       5.199  16.536  35.378 -0.15 -0.08    +0.180     2.085
ATOM     52  CB1 0Q4 A 125       5.435  17.685  34.269 -0.18 -0.01    +0.009     2.085
ATOM     53  CG1 0Q4 A 125       6.865  18.229  34.309 -0.33 -0.00    +0.012     2.085
ATOM     54  CG2 0Q4 A 125       5.182  17.134  32.851 -0.34 -0.01    +0.012     2.085
ATOM     55  N1  0Q4 A 125       6.419  15.746  35.554 -0.04 +0.12    -0.346     2.085
ATOM     56  C   0Q4 A 125       6.443  14.556  36.175 -0.16 -0.07    +0.249     2.085
ATOM     57  O   0Q4 A 125       5.425  14.033  36.668 -0.22 +0.07    -0.271     2.085
ATOM     58  H1  0Q4 A 125       7.231  16.133  35.160 +0.08 -0.06    +0.163     2.085
ATOM     59  CA  0Q4 A 125       7.838  13.871  36.334 -0.18 -0.06    +0.274     2.085
ATOM     60  N   0Q4 A 125       8.353  13.500  34.980 -0.29 +0.03    -0.067     2.085
ATOM     61  H   0Q4 A 125       9.211  12.934  35.047 -0.13 -0.08    +0.275     2.085
ATOM     62  H2  0Q4 A 125       7.580  12.955  34.522 +0.02 -0.08    +0.275     2.085
ATOM     63  HN3 0Q4 A 125       8.558  14.348  34.429 -0.45 -0.20    +0.275     2.085
ATOM     64  CB  0Q4 A 125       8.867  14.767  37.033 -0.17 -0.00    +0.044     2.085
ATOM     65  CG  0Q4 A 125       8.353  16.142  37.582 +0.07 +0.01    +0.023     2.085
ATOM     66  CD  0Q4 A 125       7.811  16.136  39.055 +0.14 +0.06    +0.138     2.085
ATOM     67  NE  0Q4 A 125       6.434  15.647  39.203 -0.13 -0.01    -0.227     2.085
ATOM     68  CZ  0Q4 A 125       5.339  16.367  38.944 -0.00 -0.03    +0.665     2.085
ATOM     69  NH1 0Q4 A 125       5.467  17.608  38.505 -0.19 -0.01    -0.235     2.085
ATOM     70  NH2 0Q4 A 125       4.120  15.893  39.240 -0.22 +0.04    -0.235     2.085
ATOM     71 HH11 0Q4 A 125       6.374  18.000  38.365 +0.05 +0.08    +0.174     2.085
ATOM     72 HH12 0Q4 A 125       4.652  18.156  38.308 +0.09 -0.03    +0.174     2.085
ATOM     73 HH21 0Q4 A 125       4.013  14.992  39.657 +0.08 -0.02    +0.174     2.085
ATOM     74 HH22 0Q4 A 125       3.313  16.452  39.039 +0.09 -0.04    +0.174     2.085
ATOM     75  HE  0Q4 A 125       6.296  14.726  39.517 +0.06 -0.01    +0.177     2.085
TER
ENDMDL
MODEL        4
USER    Run = 4
USER    Cluster Rank = 6
USER    Number of conformations in this cluster = 1
USER  
USER    RMSD from reference structure       = 3.385 A
USER  
USER    Estimated Free Energy of Binding    =   -2.65 kcal/mol  [=(1)+(2)+(3)-(4)]
USER    Estimated Inhibition Constant, Ki   =   11.43 mM (millimolar)  [Temperature = 298.15 K]
USER    
USER    (1) Final Intermolecular Energy     =  -11.30 kcal/mol
USER        vdW + Hbond + desolv Energy     =  -11.37 kcal/mol
USER        Electrostatic Energy            =   +0.07 kcal/mol
USER    (2) Final Total Internal Energy     =   +0.01 kcal/mol
USER    (3) Torsional Free Energy           =   +8.65 kcal/mol
USER    (4) Unbound System's Energy  [=(2)] =   +0.01 kcal/mol
USER    
USER    
USER  
USER    DPF = dock.dpf
USER    NEWDPF move	lig1bai.pdbqt
USER    NEWDPF about	-1.190000 15.842000 33.892000
USER    NEWDPF tran0	-4.621425 16.574653 32.344285
USER    NEWDPF axisangle0	0.970428 0.240917 0.015118 -160.830636
USER    NEWDPF quaternion0	0.956881 0.237554 0.014907 -0.166505
USER    NEWDPF dihe0	-140.22 -159.98 173.09 117.04 -83.29 -163.78 -156.99 -39.74 -179.42 102.66 113.41 -179.94 -3.03 29.57 72.14 132.08 -103.24 23.98 -43.33 -178.74 -89.66 110.62 -109.56 73.72 107.15 117.33 -98.59 -8.78 13.83 
USER  
USER                              x       y       z    vdW   Elec        q     RMS 
ATOM      1  CA3 0Q4 A 125      -4.157  15.573  34.424 -0.16 -0.13    +0.177     3.385
ATOM      2  CB3 0Q4 A 125      -4.031  16.280  35.807 -0.35 -0.05    +0.073     3.385
ATOM      3  CG4 0Q4 A 125      -5.282  16.362  36.591 -0.40 +0.04    -0.056     3.385
ATOM      4  CD1 0Q4 A 125      -5.499  15.514  37.668 -0.35 -0.00    +0.007     3.385
ATOM      5  CE1 0Q4 A 125      -6.673  15.615  38.450 -0.20 -0.00    +0.001     3.385
ATOM      6  CZ1 0Q4 A 125      -7.643  16.574  38.143 -0.51 -0.00    +0.000     3.385
ATOM      7  CE2 0Q4 A 125      -7.441  17.425  37.058 +0.24 -0.00    +0.001     3.385
ATOM      8  CD2 0Q4 A 125      -6.249  17.312  36.281 -0.53 -0.01    +0.007     3.385
ATOM      9  C3  0Q4 A 125      -5.525  15.720  33.700 -0.21 -0.20    +0.241     3.385
ATOM     10  O2  0Q4 A 125      -6.548  15.956  34.348 -0.21 +0.23    -0.271     3.385
ATOM     11  N4  0Q4 A 125      -5.503  15.693  32.367 -0.07 +0.30    -0.346     3.385
ATOM     12  H4  0Q4 A 125      -4.665  15.495  31.895 +0.01 -0.13    +0.163     3.385
ATOM     13  CA4 0Q4 A 125      -6.699  15.896  31.544 -0.19 -0.16    +0.177     3.385
ATOM     14  CB4 0Q4 A 125      -6.524  15.146  30.194 -0.25 -0.03    +0.045     3.385
ATOM     15  CG5 0Q4 A 125      -5.571  15.750  29.181 -0.17 -0.07    +0.116     3.385
ATOM     16  CD3 0Q4 A 125      -4.276  14.940  29.013 -0.26 -0.08    +0.172     3.385
ATOM     17  OE1 0Q4 A 125      -3.660  15.016  27.934 +0.15 +0.24    -0.648     3.385
ATOM     18  OE2 0Q4 A 125      -3.855  14.220  29.956 -0.03 +0.30    -0.648     3.385
ATOM     19  C4  0Q4 A 125      -8.027  15.488  32.190 -0.21 -0.23    +0.241     3.385
ATOM     20  O3  0Q4 A 125      -8.437  16.012  33.228 -0.21 +0.33    -0.271     3.385
ATOM     21  N5  0Q4 A 125      -8.620  14.435  31.653 -0.18 +0.27    -0.346     3.385
ATOM     22  H5  0Q4 A 125      -8.210  13.966  30.893 +0.03 -0.12    +0.163     3.385
ATOM     23  CA5 0Q4 A 125      -9.884  13.952  32.166 -0.23 -0.12    +0.172     3.385
ATOM     24  CB5 0Q4 A 125      -9.603  12.990  33.305 -0.09 -0.02    +0.042     3.385
ATOM     25  C5  0Q4 A 125     -10.900  15.021  32.640 -0.15 -0.25    +0.240     3.385
ATOM     26  O4  0Q4 A 125     -10.771  15.612  33.714 -0.12 +0.45    -0.271     3.385
ATOM     27  N6  0Q4 A 125     -11.935  15.201  31.826 -0.02 +0.30    -0.346     3.385
ATOM     28  H6  0Q4 A 125     -11.978  14.664  31.017 +0.04 -0.11    +0.163     3.385
ATOM     29  CA6 0Q4 A 125     -13.051  16.094  32.112 -0.07 -0.16    +0.176     3.385
ATOM     30  CB6 0Q4 A 125     -14.270  15.243  32.551 -0.08 -0.02    +0.035     3.385
ATOM     31  CG6 0Q4 A 125     -14.133  13.682  32.476 -0.13 -0.00    +0.002     3.385
ATOM     32  CD4 0Q4 A 125     -13.407  13.024  33.714 -0.21 +0.00    -0.004     3.385
ATOM     33  CE  0Q4 A 125     -13.524  13.902  34.942 -0.31 -0.00    +0.005     3.385
ATOM     34  C6  0Q4 A 125     -12.591  16.993  33.272 -0.13 -0.36    +0.238     3.385
ATOM     35  O5  0Q4 A 125     -13.198  16.966  34.382 -0.14 +0.44    -0.271     3.385
ATOM     36  N7  0Q4 A 125     -11.622  17.756  33.034 +0.05 +0.78    -0.368     3.385
ATOM     37  H72 0Q4 A 125     -11.132  17.778  32.140 -0.52 -0.45    +0.159     3.385
ATOM     38  H71 0Q4 A 125     -11.318  18.352  33.804 -0.23 -0.41    +0.159     3.385
ATOM     39  N3  0Q4 A 125      -3.173  16.194  33.530 -0.07 +0.30    -0.387     3.385
ATOM     40  C2  0Q4 A 125      -3.006  15.838  32.269 -0.30 -0.06    +0.081     3.385
ATOM     41  H3  0Q4 A 125      -2.624  16.922  33.878 +0.09 -0.15    +0.159     3.385
ATOM     42  CA2 0Q4 A 125      -1.966  16.633  31.491 -0.25 -0.11    +0.123     3.385
ATOM     43  CB2 0Q4 A 125      -1.494  15.888  30.218 -0.34 -0.02    +0.034     3.385
ATOM     44  CG3 0Q4 A 125      -1.157  16.798  29.004 -0.40 +0.01    -0.020     3.385
ATOM     45  CD1 0Q4 A 125      -2.372  17.553  28.465 -0.38 -0.01    +0.009     3.385
ATOM     46  CD2 0Q4 A 125      -0.066  17.783  29.381 -0.21 -0.01    +0.009     3.385
ATOM     47  N2  0Q4 A 125      -0.813  17.096  32.239 -0.08 +0.39    -0.350     3.385
ATOM     48  C1  0Q4 A 125      -0.440  16.497  33.356 -0.18 -0.22    +0.241     3.385
ATOM     49  O1  0Q4 A 125      -0.952  15.442  33.710 -0.09 +0.15    -0.271     3.385
ATOM     50  HN2 0Q4 A 125      -0.329  17.893  31.927 +0.09 -0.25    +0.163     3.385
ATOM     51  CA1 0Q4 A 125       0.762  17.132  34.102 -0.23 -0.20    +0.180     3.385
ATOM     52  CB1 0Q4 A 125       2.107  17.237  33.214 -0.35 -0.01    +0.009     3.385
ATOM     53  CG1 0Q4 A 125       2.244  16.059  32.247 -0.30 -0.01    +0.012     3.385
ATOM     54  CG2 0Q4 A 125       2.108  18.533  32.377 -0.19 -0.02    +0.012     3.385
ATOM     55  N1  0Q4 A 125       1.045  16.454  35.368 -0.09 +0.26    -0.346     3.385
ATOM     56  C   0Q4 A 125       2.234  15.900  35.656 -0.20 -0.12    +0.249     3.385
ATOM     57  O   0Q4 A 125       3.192  15.906  34.860 -0.16 +0.15    -0.271     3.385
ATOM     58  H1  0Q4 A 125       0.309  16.450  36.016 +0.10 -0.12    +0.163     3.385
ATOM     59  CA  0Q4 A 125       2.353  15.158  37.026 -0.26 -0.08    +0.274     3.385
ATOM     60  N   0Q4 A 125       1.079  14.420  37.290 -0.36 +0.01    -0.067     3.385
ATOM     61  H   0Q4 A 125       1.253  13.418  37.451 +0.17 -0.03    +0.275     3.385
ATOM     62  H2  0Q4 A 125       0.663  14.870  38.144 +0.18 -0.07    +0.275     3.385
ATOM     63  HN3 0Q4 A 125       0.433  14.521  36.491 +0.16 -0.03    +0.275     3.385
ATOM     64  CB  0Q4 A 125       3.523  14.168  37.071 -0.30 -0.01    +0.044     3.385
ATOM     65  CG  0Q4 A 125       4.899  14.719  37.582 -0.29 -0.00    +0.023     3.385
ATOM     66  CD  0Q4 A 125       4.969  16.266  37.835 -0.19 -0.03    +0.138     3.385
ATOM     67  NE  0Q4 A 125       6.102  16.946  37.193 -0.12 +0.01    -0.227     3.385
ATOM     68  CZ  0Q4 A 125       6.041  17.585  36.022 +0.05 -0.18    +0.665     3.385
ATOM     69  NH1 0Q4 A 125       4.889  17.645  35.374 -0.01 +0.15    -0.235     3.385
ATOM     70  NH2 0Q4 A 125       7.152  18.057  35.438 -0.20 +0.04    -0.235     3.385
ATOM     71 HH11 0Q4 A 125       4.073  17.219  35.761 +0.04 -0.11    +0.174     3.385
ATOM     72 HH12 0Q4 A 125       4.833  18.122  34.495 -0.46 -0.16    +0.174     3.385
ATOM     73 HH21 0Q4 A 125       8.043  17.939  35.873 +0.06 +0.02    +0.174     3.385
ATOM     74 HH22 0Q4 A 125       7.082  18.532  34.558 +0.07 -0.05    +0.174     3.385
ATOM     75  HE  0Q4 A 125       6.974  16.934  37.647 +0.06 +0.04    +0.177     3.385
TER
ENDMDL
MODEL        9
USER    Run = 9
USER    Cluster Rank = 7
USER    Number of conformations in this cluster = 1
USER  
USER    RMSD from reference structure       = 3.839 A
USER  
USER    Estimated Free Energy of Binding    =   +0.96 kcal/mol  [=(1)+(2)+(3)-(4)]
USER    
USER    (1) Final Intermolecular Energy     =   -7.70 kcal/mol
USER        vdW + Hbond + desolv Energy     =   -7.65 kcal/mol
USER        Electrostatic Energy            =   -0.04 kcal/mol
USER    (2) Final Total Internal Energy     =   -5.07 kcal/mol
USER    (3) Torsional Free Energy           =   +8.65 kcal/mol
USER    (4) Unbound System's Energy  [=(2)] =   -5.07 kcal/mol
USER    
USER    
USER  
USER    DPF = dock.dpf
USER    NEWDPF move	lig1bai.pdbqt
USER    NEWDPF about	-1.190000 15.842000 33.892000
USER    NEWDPF tran0	-4.361897 16.483660 32.410581
USER    NEWDPF axisangle0	0.198687 -0.950379 -0.239381 -169.631879
USER    NEWDPF quaternion0	0.197874 -0.946492 -0.238401 -0.090356
USER    NEWDPF dihe0	180.00 55.23 179.20 69.83 -179.68 -153.24 -17.58 -99.83 167.67 -61.21 2.85 143.82 164.00 -116.66 -81.61 99.64 -179.76 -88.22 139.09 -167.34 86.45 -124.08 -172.01 -43.00 -178.59 -30.92 -138.20 36.58 -19.12 
USER  
USER                              x       y       z    vdW   Elec        q     RMS 
ATOM      1  CA3 0Q4 A 125      -4.367  17.271  34.630 -0.30 -0.15    +0.177     3.839
ATOM      2  CB3 0Q4 A 125      -4.271  16.424  35.934 -0.37 -0.05    +0.073     3.839
ATOM      3  CG4 0Q4 A 125      -5.552  16.204  36.639 -0.42 +0.04    -0.056     3.839
ATOM      4  CD1 0Q4 A 125      -6.550  15.426  36.068 -0.43 -0.00    +0.007     3.839
ATOM      5  CE1 0Q4 A 125      -7.760  15.173  36.755 +0.36 -0.00    +0.001     3.839
ATOM      6  CZ1 0Q4 A 125      -7.973  15.715  38.028 -0.52 -0.00    +0.000     3.839
ATOM      7  CE2 0Q4 A 125      -6.983  16.506  38.607 -0.23 -0.00    +0.001     3.839
ATOM      8  CD2 0Q4 A 125      -5.766  16.748  37.901 -0.44 -0.00    +0.007     3.839
ATOM      9  C3  0Q4 A 125      -3.172  17.152  33.644 -0.23 -0.24    +0.241     3.839
ATOM     10  O2  0Q4 A 125      -2.047  17.528  33.984 -0.25 +0.34    -0.271     3.839
ATOM     11  N4  0Q4 A 125      -3.407  16.530  32.488 -0.09 +0.30    -0.346     3.839
ATOM     12  H4  0Q4 A 125      -4.321  16.253  32.258 +0.09 -0.14    +0.163     3.839
ATOM     13  CA4 0Q4 A 125      -2.363  16.272  31.492 -0.23 -0.14    +0.177     3.839
ATOM     14  CB4 0Q4 A 125      -2.076  17.580  30.702 -0.32 -0.05    +0.045     3.839
ATOM     15  CG5 0Q4 A 125      -0.654  18.106  30.720 -0.33 -0.18    +0.116     3.839
ATOM     16  CD3 0Q4 A 125      -0.022  18.184  29.322 +0.03 -0.24    +0.172     3.839
ATOM     17  OE1 0Q4 A 125      -0.747  17.997  28.327 +0.20 +0.57    -0.648     3.839
ATOM     18  OE2 0Q4 A 125       1.206  18.437  29.197 +1.06 +1.15    -0.648     3.839
ATOM     19  C4  0Q4 A 125      -1.050  15.703  32.038 -0.23 -0.16    +0.241     3.839
ATOM     20  O3  0Q4 A 125      -0.058  15.547  31.322 -0.11 +0.16    -0.271     3.839
ATOM     21  N5  0Q4 A 125      -1.101  15.244  33.277 -0.05 +0.18    -0.346     3.839
ATOM     22  H5  0Q4 A 125      -1.941  15.279  33.787 +0.12 -0.09    +0.163     3.839
ATOM     23  CA5 0Q4 A 125       0.073  14.686  33.913 +0.12 -0.05    +0.172     3.839
ATOM     24  CB5 0Q4 A 125       0.316  13.302  33.341 +0.65 +0.01    +0.042     3.839
ATOM     25  C5  0Q4 A 125       1.379  15.515  33.816 -0.24 -0.13    +0.240     3.839
ATOM     26  O4  0Q4 A 125       1.832  16.132  34.783 -0.16 +0.17    -0.271     3.839
ATOM     27  N6  0Q4 A 125       1.926  15.548  32.606 -0.08 +0.20    -0.346     3.839
ATOM     28  H6  0Q4 A 125       1.481  15.064  31.890 +0.17 -0.08    +0.163     3.839
ATOM     29  CA6 0Q4 A 125       3.107  16.331  32.267 -0.26 -0.13    +0.176     3.839
ATOM     30  CB6 0Q4 A 125       4.331  15.383  32.197 -0.31 -0.02    +0.035     3.839
ATOM     31  CG6 0Q4 A 125       5.295  15.528  30.967 -0.46 -0.00    +0.002     3.839
ATOM     32  CD4 0Q4 A 125       6.463  16.572  31.166 -0.47 +0.00    -0.004     3.839
ATOM     33  CE  0Q4 A 125       6.189  17.476  32.350 -0.37 -0.00    +0.005     3.839
ATOM     34  C6  0Q4 A 125       2.832  16.938  30.881 -0.25 -0.21    +0.238     3.839
ATOM     35  O5  0Q4 A 125       3.034  18.170  30.669 +0.72 +0.36    -0.271     3.839
ATOM     36  N7  0Q4 A 125       2.373  16.155  30.012 +0.03 +0.26    -0.368     3.839
ATOM     37  H72 0Q4 A 125       2.211  15.163  30.181 +0.33 -0.08    +0.159     3.839
ATOM     38  H71 0Q4 A 125       2.191  16.558  29.092 +0.12 -0.12    +0.159     3.839
ATOM     39  N3  0Q4 A 125      -5.536  16.788  33.886 -0.11 +0.32    -0.387     3.839
ATOM     40  C2  0Q4 A 125      -6.295  17.565  33.133 -0.33 -0.07    +0.081     3.839
ATOM     41  H3  0Q4 A 125      -5.757  15.838  33.933 +0.08 -0.13    +0.159     3.839
ATOM     42  CA2 0Q4 A 125      -7.435  16.868  32.404 -0.29 -0.14    +0.123     3.839
ATOM     43  CB2 0Q4 A 125      -7.843  17.614  31.110 +0.52 -0.06    +0.034     3.839
ATOM     44  CG3 0Q4 A 125      -7.014  17.252  29.846 -0.22 +0.02    -0.020     3.839
ATOM     45  CD1 0Q4 A 125      -6.131  18.400  29.359 -0.31 -0.01    +0.009     3.839
ATOM     46  CD2 0Q4 A 125      -6.160  16.027  30.119 -0.21 -0.01    +0.009     3.839
ATOM     47  N2  0Q4 A 125      -8.619  16.571  33.188 -0.15 +0.50    -0.350     3.839
ATOM     48  C1  0Q4 A 125      -9.099  15.342  33.259 -0.24 -0.28    +0.241     3.839
ATOM     49  O1  0Q4 A 125      -8.477  14.392  32.801 -0.44 +0.21    -0.271     3.839
ATOM     50  HN2 0Q4 A 125      -9.089  17.307  33.640 -0.12 -0.32    +0.163     3.839
ATOM     51  CA1 0Q4 A 125     -10.410  15.169  34.069 -0.04 -0.27    +0.180     3.839
ATOM     52  CB1 0Q4 A 125     -10.877  13.633  34.244 -0.40 -0.01    +0.009     3.839
ATOM     53  CG1 0Q4 A 125     -12.350  13.441  33.876 -0.35 -0.01    +0.012     3.839
ATOM     54  CG2 0Q4 A 125     -10.043  12.703  33.341 -0.20 -0.01    +0.012     3.839
ATOM     55  N1  0Q4 A 125     -11.506  15.969  33.519 -0.03 +0.57    -0.346     3.839
ATOM     56  C   0Q4 A 125     -11.968  15.822  32.267 -0.09 -0.28    +0.249     3.839
ATOM     57  O   0Q4 A 125     -11.489  14.999  31.464 -0.09 +0.22    -0.271     3.839
ATOM     58  H1  0Q4 A 125     -11.908  16.614  34.139 -0.44 -0.38    +0.163     3.839
ATOM     59  CA  0Q4 A 125     -13.101  16.799  31.814 -0.05 -0.27    +0.274     3.839
ATOM     60  N   0Q4 A 125     -14.031  16.071  30.897 -0.02 +0.04    -0.067     3.839
ATOM     61  H   0Q4 A 125     -14.951  15.925  31.334 +0.03 -0.14    +0.275     3.839
ATOM     62  H2  0Q4 A 125     -14.115  16.676  30.041 +0.03 -0.15    +0.275     3.839
ATOM     63  HN3 0Q4 A 125     -13.636  15.153  30.639 +0.04 -0.15    +0.275     3.839
ATOM     64  CB  0Q4 A 125     -13.903  17.369  32.991 -0.13 -0.04    +0.044     3.839
ATOM     65  CG  0Q4 A 125     -13.865  16.561  34.333 -0.16 -0.03    +0.023     3.839
ATOM     66  CD  0Q4 A 125     -14.872  15.363  34.444 -0.10 -0.09    +0.138     3.839
ATOM     67  NE  0Q4 A 125     -15.131  14.900  35.814 -0.12 +0.12    -0.227     3.839
ATOM     68  CZ  0Q4 A 125     -14.185  14.619  36.713 -0.02 -0.41    +0.665     3.839
ATOM     69  NH1 0Q4 A 125     -12.913  14.773  36.387 -0.20 +0.22    -0.235     3.839
ATOM     70  NH2 0Q4 A 125     -14.501  14.067  37.894 -0.27 +0.11    -0.235     3.839
ATOM     71 HH11 0Q4 A 125     -12.664  15.102  35.477 +0.06 -0.21    +0.174     3.839
ATOM     72 HH12 0Q4 A 125     -12.195  14.566  37.054 +0.10 -0.16    +0.174     3.839
ATOM     73 HH21 0Q4 A 125     -15.452  13.860  38.119 -0.41 -0.11    +0.174     3.839
ATOM     74 HH22 0Q4 A 125     -13.774  13.863  38.552 +0.09 -0.07    +0.174     3.839
ATOM     75  HE  0Q4 A 125     -16.064  14.783  36.099 +0.06 -0.07    +0.177     3.839
TER
ENDMDL
MODEL        5
USER    Run = 5
USER    Cluster Rank = 8
USER    Number of conformations in this cluster = 1
USER  
USER    RMSD from reference structure       = 3.538 A
USER  
USER    Estimated Free Energy of Binding    =   +5.74 kcal/mol  [=(1)+(2)+(3)-(4)]
USER    
USER    (1) Final Intermolecular Energy     =   -2.91 kcal/mol
USER        vdW + Hbond + desolv Energy     =   -1.81 kcal/mol
USER        Electrostatic Energy            =   -1.11 kcal/mol
USER    (2) Final Total Internal Energy     =   -5.49 kcal/mol
USER    (3) Torsional Free Energy           =   +8.65 kcal/mol
USER    (4) Unbound System's Energy  [=(2)] =   -5.49 kcal/mol
USER    
USER    
USER  
USER    DPF = dock.dpf
USER    NEWDPF move	lig1bai.pdbqt
USER    NEWDPF about	-1.190000 15.842000 33.892000
USER    NEWDPF tran0	-4.770884 15.849961 32.488562
USER    NEWDPF axisangle0	-0.979810 -0.180280 -0.086438 170.197723
USER    NEWDPF quaternion0	-0.976227 -0.179621 -0.086122 0.085437
USER    NEWDPF dihe0	-154.74 30.61 -179.40 158.25 -179.47 -98.90 -131.06 -90.14 180.00 -169.97 -129.09 -159.21 -47.87 -133.71 -55.58 -161.13 178.64 100.82 23.99 77.11 142.76 155.42 112.08 -162.10 -180.00 141.15 -165.97 -7.90 13.46 
USER  
USER                              x       y       z    vdW   Elec        q     RMS 
ATOM      1  CA3 0Q4 A 125      -4.654  14.428  34.362 +0.49 -0.14    +0.177     3.538
ATOM      2  CB3 0Q4 A 125      -4.644  14.843  35.864 -0.09 -0.04    +0.073     3.538
ATOM      3  CG4 0Q4 A 125      -5.663  15.840  36.250 -0.40 +0.04    -0.056     3.538
ATOM      4  CD1 0Q4 A 125      -6.564  15.573  37.272 -0.41 -0.00    +0.007     3.538
ATOM      5  CE1 0Q4 A 125      -7.513  16.540  37.678 -0.53 -0.00    +0.001     3.538
ATOM      6  CZ1 0Q4 A 125      -7.565  17.786  37.046 +2.39 -0.00    +0.000     3.538
ATOM      7  CE2 0Q4 A 125      -6.672  18.063  36.011 -0.31 -0.00    +0.001     3.538
ATOM      8  CD2 0Q4 A 125      -5.717  17.077  35.616 -0.46 -0.01    +0.007     3.538
ATOM      9  C3  0Q4 A 125      -5.903  14.853  33.541 +1.91 -0.23    +0.241     3.538
ATOM     10  O2  0Q4 A 125      -6.871  14.094  33.446 +1.53 +0.26    -0.271     3.538
ATOM     11  N4  0Q4 A 125      -5.910  16.096  33.058 -0.09 +0.30    -0.346     3.538
ATOM     12  H4  0Q4 A 125      -5.114  16.662  33.153 +0.09 -0.14    +0.163     3.538
ATOM     13  CA4 0Q4 A 125      -7.049  16.665  32.332 -0.25 -0.18    +0.177     3.538
ATOM     14  CB4 0Q4 A 125      -7.027  16.152  30.865 -0.23 -0.04    +0.045     3.538
ATOM     15  CG5 0Q4 A 125      -6.110  14.987  30.548 -0.23 -0.08    +0.116     3.538
ATOM     16  CD3 0Q4 A 125      -6.276  14.461  29.114 -0.23 -0.09    +0.172     3.538
ATOM     17  OE1 0Q4 A 125      -7.284  14.799  28.467 +0.03 +0.31    -0.648     3.538
ATOM     18  OE2 0Q4 A 125      -5.401  13.706  28.613 -0.07 +0.26    -0.648     3.538
ATOM     19  C4  0Q4 A 125      -8.427  16.403  32.947 -0.22 -0.31    +0.241     3.538
ATOM     20  O3  0Q4 A 125      -9.056  17.283  33.539 -0.05 +0.51    -0.271     3.538
ATOM     21  N5  0Q4 A 125      -8.821  15.140  32.941 -0.14 +0.35    -0.346     3.538
ATOM     22  H5  0Q4 A 125      -8.245  14.440  32.562 +0.04 -0.13    +0.163     3.538
ATOM     23  CA5 0Q4 A 125     -10.107  14.761  33.487 -0.27 -0.19    +0.172     3.538
ATOM     24  CB5 0Q4 A 125     -10.387  13.322  33.096 -0.41 -0.03    +0.042     3.538
ATOM     25  C5  0Q4 A 125     -10.290  14.920  35.017 +0.77 -0.38    +0.240     3.538
ATOM     26  O4  0Q4 A 125      -9.347  15.193  35.761 +0.12 +0.43    -0.271     3.538
ATOM     27  N6  0Q4 A 125     -11.522  14.683  35.455 -0.10 +0.46    -0.346     3.538
ATOM     28  H6  0Q4 A 125     -12.199  14.435  34.802 +0.08 -0.16    +0.163     3.538
ATOM     29  CA6 0Q4 A 125     -11.903  14.693  36.861 -0.20 -0.19    +0.176     3.538
ATOM     30  CB6 0Q4 A 125     -13.138  15.614  37.037 -0.30 -0.04    +0.035     3.538
ATOM     31  CG6 0Q4 A 125     -14.003  15.923  35.765 -0.23 -0.00    +0.002     3.538
ATOM     32  CD4 0Q4 A 125     -15.183  14.905  35.508 -0.23 +0.00    -0.004     3.538
ATOM     33  CE  0Q4 A 125     -15.370  13.980  36.693 -0.41 -0.00    +0.005     3.538
ATOM     34  C6  0Q4 A 125     -12.275  13.242  37.212 -0.29 -0.14    +0.238     3.538
ATOM     35  O5  0Q4 A 125     -12.213  12.335  36.331 -0.35 +0.18    -0.271     3.538
ATOM     36  N7  0Q4 A 125     -12.664  13.037  38.388 -0.04 +0.15    -0.368     3.538
ATOM     37  H72 0Q4 A 125     -12.714  13.767  39.098 +0.11 -0.06    +0.159     3.538
ATOM     38  H71 0Q4 A 125     -12.911  12.075  38.621 +0.27 -0.06    +0.159     3.538
ATOM     39  N3  0Q4 A 125      -3.518  15.101  33.721 +0.18 +0.26    -0.387     3.538
ATOM     40  C2  0Q4 A 125      -3.220  14.970  32.440 +0.06 -0.05    +0.081     3.538
ATOM     41  H3  0Q4 A 125      -2.962  15.693  34.263 +0.10 -0.11    +0.159     3.538
ATOM     42  CA2 0Q4 A 125      -2.030  15.786  31.952 -0.29 -0.08    +0.123     3.538
ATOM     43  CB2 0Q4 A 125      -1.475  15.260  30.607 -0.28 -0.02    +0.034     3.538
ATOM     44  CG3 0Q4 A 125      -2.014  15.980  29.339 -0.39 +0.01    -0.020     3.538
ATOM     45  CD1 0Q4 A 125      -3.365  16.659  29.565 -0.30 -0.01    +0.009     3.538
ATOM     46  CD2 0Q4 A 125      -1.002  17.001  28.852 -0.38 -0.01    +0.009     3.538
ATOM     47  N2  0Q4 A 125      -0.940  15.966  32.893 -0.10 +0.25    -0.350     3.538
ATOM     48  C1  0Q4 A 125      -0.457  14.946  33.579 +0.21 -0.10    +0.241     3.538
ATOM     49  O1  0Q4 A 125      -0.801  13.797  33.332 -0.32 +0.03    -0.271     3.538
ATOM     50  HN2 0Q4 A 125      -0.586  16.871  33.046 +0.10 -0.17    +0.163     3.538
ATOM     51  CA1 0Q4 A 125       0.656  15.282  34.606 -0.26 -0.07    +0.180     3.538
ATOM     52  CB1 0Q4 A 125       0.157  16.190  35.845 -0.38 -0.01    +0.009     3.538
ATOM     53  CG1 0Q4 A 125       1.075  17.393  36.074 -0.37 -0.01    +0.012     3.538
ATOM     54  CG2 0Q4 A 125      -1.266  16.728  35.588 -0.34 -0.01    +0.012     3.538
ATOM     55  N1  0Q4 A 125       1.824  15.894  33.970 -0.10 +0.21    -0.346     3.538
ATOM     56  C   0Q4 A 125       2.048  15.852  32.647 -0.17 -0.16    +0.249     3.538
ATOM     57  O   0Q4 A 125       1.284  15.272  31.852 +0.88 +0.15    -0.271     3.538
ATOM     58  H1  0Q4 A 125       2.431  16.369  34.576 +0.09 -0.11    +0.163     3.538
ATOM     59  CA  0Q4 A 125       3.374  16.500  32.135 -0.20 -0.20    +0.274     3.538
ATOM     60  N   0Q4 A 125       3.128  17.947  31.850 +0.01 +0.07    -0.067     3.538
ATOM     61  H   0Q4 A 125       3.771  18.550  32.382 +0.14 -0.27    +0.275     3.538
ATOM     62  H2  0Q4 A 125       3.277  18.062  30.816 +0.17 -0.32    +0.275     3.538
ATOM     63  HN3 0Q4 A 125       2.157  18.202  32.094 +0.08 -0.43    +0.275     3.538
ATOM     64  CB  0Q4 A 125       4.526  16.378  33.141 -0.31 -0.03    +0.044     3.538
ATOM     65  CG  0Q4 A 125       5.963  16.719  32.618 -0.36 -0.01    +0.023     3.538
ATOM     66  CD  0Q4 A 125       6.731  15.552  31.903 -0.36 -0.09    +0.138     3.538
ATOM     67  NE  0Q4 A 125       7.002  14.382  32.749 -0.14 +0.15    -0.227     3.538
ATOM     68  CZ  0Q4 A 125       7.819  14.381  33.805 +0.54 -0.45    +0.665     3.538
ATOM     69  NH1 0Q4 A 125       8.434  15.499  34.152 -0.01 +0.16    -0.235     3.538
ATOM     70  NH2 0Q4 A 125       8.120  13.237  34.439 -0.15 +0.10    -0.235     3.538
ATOM     71 HH11 0Q4 A 125       8.283  16.338  33.632 +0.06 -0.12    +0.174     3.538
ATOM     72 HH12 0Q4 A 125       9.049  15.508  34.943 -0.06 -0.09    +0.174     3.538
ATOM     73 HH21 0Q4 A 125       7.734  12.370  34.130 +0.08 -0.03    +0.174     3.538
ATOM     74 HH22 0Q4 A 125       8.738  13.260  35.227 -0.08 -0.06    +0.174     3.538
ATOM     75  HE  0Q4 A 125       6.556  13.534  32.531 -0.46 -0.09    +0.177     3.538
TER
ENDMDL
MODEL        1
USER    Run = 1
USER    Cluster Rank = 9
USER    Number of conformations in this cluster = 1
USER  
USER    RMSD from reference structure       = 3.781 A
USER  
USER    Estimated Free Energy of Binding    =   +6.59 kcal/mol  [=(1)+(2)+(3)-(4)]
USER    
USER    (1) Final Intermolecular Energy     =   -2.07 kcal/mol
USER        vdW + Hbond + desolv Energy     =   -1.25 kcal/mol
USER        Electrostatic Energy            =   -0.82 kcal/mol
USER    (2) Final Total Internal Energy     =   -3.59 kcal/mol
USER    (3) Torsional Free Energy           =   +8.65 kcal/mol
USER    (4) Unbound System's Energy  [=(2)] =   -3.59 kcal/mol
USER    
USER    
USER  
USER    DPF = dock.dpf
USER    NEWDPF move	lig1bai.pdbqt
USER    NEWDPF about	-1.190000 15.842000 33.892000
USER    NEWDPF tran0	-4.508361 16.496304 34.469828
USER    NEWDPF axisangle0	0.990762 0.054430 0.124209 -170.750424
USER    NEWDPF quaternion0	0.987536 0.054253 0.123804 -0.080630
USER    NEWDPF dihe0	154.11 -172.77 -29.61 -164.49 -160.80 25.43 15.85 -152.80 -18.14 62.31 128.07 144.21 -12.13 -150.49 135.88 -180.00 -138.62 29.99 -177.28 53.96 180.00 82.15 -179.87 -4.83 91.37 -3.58 -57.47 20.61 179.03 
USER  
USER                              x       y       z    vdW   Elec        q     RMS 
ATOM      1  CA3 0Q4 A 125      -4.913  15.024  36.262 -0.29 -0.10    +0.177     3.781
ATOM      2  CB3 0Q4 A 125      -4.949  15.370  37.781 -0.37 -0.04    +0.073     3.781
ATOM      3  CG4 0Q4 A 125      -6.227  15.928  38.270 -0.33 +0.03    -0.056     3.781
ATOM      4  CD1 0Q4 A 125      -7.373  15.146  38.309 +0.10 -0.00    +0.007     3.781
ATOM      5  CE1 0Q4 A 125      -8.589  15.658  38.818 +0.33 -0.00    +0.001     3.781
ATOM      6  CZ1 0Q4 A 125      -8.657  16.975  39.286 +1.40 -0.00    +0.000     3.781
ATOM      7  CE2 0Q4 A 125      -7.516  17.774  39.243 +1.83 -0.00    +0.001     3.781
ATOM      8  CD2 0Q4 A 125      -6.296  17.240  38.730 +0.21 -0.00    +0.007     3.781
ATOM      9  C3  0Q4 A 125      -5.941  15.766  35.364 -0.30 -0.18    +0.241     3.781
ATOM     10  O2  0Q4 A 125      -6.503  16.784  35.775 -0.34 +0.22    -0.271     3.781
ATOM     11  N4  0Q4 A 125      -6.084  15.315  34.117 -0.14 +0.29    -0.346     3.781
ATOM     12  H4  0Q4 A 125      -5.620  14.496  33.836 -0.37 -0.16    +0.163     3.781
ATOM     13  CA4 0Q4 A 125      -6.956  15.957  33.130 -0.26 -0.17    +0.177     3.781
ATOM     14  CB4 0Q4 A 125      -7.119  15.017  31.903 -0.20 -0.04    +0.045     3.781
ATOM     15  CG5 0Q4 A 125      -6.539  15.487  30.583 -0.21 -0.09    +0.116     3.781
ATOM     16  CD3 0Q4 A 125      -7.180  16.785  30.070 -0.14 -0.16    +0.172     3.781
ATOM     17  OE1 0Q4 A 125      -6.453  17.633  29.520 +0.05 +0.54    -0.648     3.781
ATOM     18  OE2 0Q4 A 125      -8.418  16.973  30.204 +0.05 +0.89    -0.648     3.781
ATOM     19  C4  0Q4 A 125      -8.337  16.382  33.639 -0.26 -0.32    +0.241     3.781
ATOM     20  O3  0Q4 A 125      -8.519  16.751  34.801 +0.32 +0.52    -0.271     3.781
ATOM     21  N5  0Q4 A 125      -9.339  16.174  32.802 -0.11 +0.51    -0.346     3.781
ATOM     22  H5  0Q4 A 125      -9.177  15.772  31.920 +0.07 -0.19    +0.163     3.781
ATOM     23  CA5 0Q4 A 125     -10.694  16.538  33.160 +0.15 -0.34    +0.172     3.781
ATOM     24  CB5 0Q4 A 125     -11.415  16.994  31.906 +0.67 -0.08    +0.042     3.781
ATOM     25  C5  0Q4 A 125     -11.542  15.454  33.871 -0.00 -0.36    +0.240     3.781
ATOM     26  O4  0Q4 A 125     -12.427  15.745  34.678 -0.12 +0.44    -0.271     3.781
ATOM     27  N6  0Q4 A 125     -11.198  14.203  33.583 -0.11 +0.31    -0.346     3.781
ATOM     28  H6  0Q4 A 125     -10.460  14.063  32.965 +0.08 -0.13    +0.163     3.781
ATOM     29  CA6 0Q4 A 125     -11.803  13.029  34.199 -0.33 -0.12    +0.176     3.781
ATOM     30  CB6 0Q4 A 125     -12.027  13.316  35.706 -0.40 -0.03    +0.035     3.781
ATOM     31  CG6 0Q4 A 125     -12.939  12.322  36.507 -0.55 -0.00    +0.002     3.781
ATOM     32  CD4 0Q4 A 125     -14.215  12.982  37.163 -0.56 +0.00    -0.004     3.781
ATOM     33  CE  0Q4 A 125     -13.880  14.330  37.768 -0.48 -0.00    +0.005     3.781
ATOM     34  C6  0Q4 A 125     -13.155  12.828  33.495 -0.11 -0.15    +0.238     3.781
ATOM     35  O5  0Q4 A 125     -14.232  13.167  34.067 -0.08 +0.14    -0.271     3.781
ATOM     36  N7  0Q4 A 125     -13.117  12.288  32.361 +0.19 +0.24    -0.368     3.781
ATOM     37  H72 0Q4 A 125     -12.250  12.014  31.899 +0.03 -0.06    +0.159     3.781
ATOM     38  H71 0Q4 A 125     -14.014  12.154  31.895 -0.47 -0.15    +0.159     3.781
ATOM     39  N3  0Q4 A 125      -3.594  15.424  35.759 +1.74 +0.23    -0.387     3.781
ATOM     40  C2  0Q4 A 125      -2.768  16.215  36.422 +0.04 -0.05    +0.081     3.781
ATOM     41  H3  0Q4 A 125      -3.300  15.074  34.896 +0.44 -0.09    +0.159     3.781
ATOM     42  CA2 0Q4 A 125      -1.426  16.478  35.753 -0.06 -0.10    +0.123     3.781
ATOM     43  CB2 0Q4 A 125      -0.431  17.190  36.701 -0.42 -0.03    +0.034     3.781
ATOM     44  CG3 0Q4 A 125      -0.570  16.823  38.206 +0.73 +0.01    -0.020     3.781
ATOM     45  CD1 0Q4 A 125      -1.431  15.582  38.442 +0.27 -0.00    +0.009     3.781
ATOM     46  CD2 0Q4 A 125       0.803  16.620  38.819 -0.39 -0.00    +0.009     3.781
ATOM     47  N2  0Q4 A 125      -1.463  17.168  34.477 -0.12 +0.40    -0.350     3.781
ATOM     48  C1  0Q4 A 125      -1.397  16.501  33.339 -0.18 -0.21    +0.241     3.781
ATOM     49  O1  0Q4 A 125      -1.464  15.279  33.317 -0.12 +0.15    -0.271     3.781
ATOM     50  HN2 0Q4 A 125      -1.498  18.151  34.467 +0.02 -0.29    +0.163     3.781
ATOM     51  CA1 0Q4 A 125      -1.371  17.359  32.047 -0.25 -0.21    +0.180     3.781
ATOM     52  CB1 0Q4 A 125      -2.328  16.806  30.870 -0.31 -0.01    +0.009     3.781
ATOM     53  CG1 0Q4 A 125      -1.520  16.277  29.682 -0.38 -0.01    +0.012     3.781
ATOM     54  CG2 0Q4 A 125      -3.214  15.654  31.385 -0.33 -0.01    +0.012     3.781
ATOM     55  N1  0Q4 A 125      -0.010  17.552  31.543 -0.12 +0.48    -0.346     3.781
ATOM     56  C   0Q4 A 125       0.844  16.538  31.325 -0.17 -0.23    +0.249     3.781
ATOM     57  O   0Q4 A 125       0.551  15.349  31.550 +0.46 +0.15    -0.271     3.781
ATOM     58  H1  0Q4 A 125       0.237  18.480  31.344 -0.26 -0.37    +0.163     3.781
ATOM     59  CA  0Q4 A 125       2.281  16.919  30.844 -0.23 -0.26    +0.274     3.781
ATOM     60  N   0Q4 A 125       2.173  17.830  29.663 -0.21 +0.09    -0.067     3.781
ATOM     61  H   0Q4 A 125       1.898  17.314  28.816 +0.56 -0.25    +0.275     3.781
ATOM     62  H2  0Q4 A 125       1.444  18.542  29.921 -0.31 -0.68    +0.275     3.781
ATOM     63  HN3 0Q4 A 125       3.075  18.299  29.487 +0.12 -0.33    +0.275     3.781
ATOM     64  CB  0Q4 A 125       3.112  17.609  31.934 -0.19 -0.04    +0.044     3.781
ATOM     65  CG  0Q4 A 125       4.091  16.704  32.758 -0.34 -0.02    +0.023     3.781
ATOM     66  CD  0Q4 A 125       3.529  15.307  33.199 -0.21 -0.08    +0.138     3.781
ATOM     67  NE  0Q4 A 125       2.678  15.334  34.397 -0.15 +0.10    -0.227     3.781
ATOM     68  CZ  0Q4 A 125       3.132  15.322  35.652 +0.09 -0.25    +0.665     3.781
ATOM     69  NH1 0Q4 A 125       4.436  15.302  35.872 -0.15 +0.09    -0.235     3.781
ATOM     70  NH2 0Q4 A 125       2.286  15.206  36.687 -0.23 +0.07    -0.235     3.781
ATOM     71 HH11 0Q4 A 125       5.074  15.300  35.104 +0.04 -0.09    +0.174     3.781
ATOM     72 HH12 0Q4 A 125       4.786  15.293  36.810 +0.09 -0.05    +0.174     3.781
ATOM     73 HH21 0Q4 A 125       1.303  15.129  36.532 +0.10 -0.05    +0.174     3.781
ATOM     74 HH22 0Q4 A 125       2.650  15.198  37.621 +0.10 -0.05    +0.174     3.781
ATOM     75  HE  0Q4 A 125       1.703  15.360  34.276 +0.09 -0.08    +0.177     3.781
TER
ENDMDL
MODEL        2
USER    Run = 2
USER    Cluster Rank = 10
USER    Number of conformations in this cluster = 1
USER  
USER    RMSD from reference structure       = 3.876 A
USER  
USER    Estimated Free Energy of Binding    =   +9.80 kcal/mol  [=(1)+(2)+(3)-(4)]
USER    
USER    (1) Final Intermolecular Energy     =   +1.15 kcal/mol
USER        vdW + Hbond + desolv Energy     =   +0.40 kcal/mol
USER        Electrostatic Energy            =   +0.75 kcal/mol
USER    (2) Final Total Internal Energy     =   +1.59 kcal/mol
USER    (3) Torsional Free Energy           =   +8.65 kcal/mol
USER    (4) Unbound System's Energy  [=(2)] =   +1.59 kcal/mol
USER    
USER    
USER  
USER    DPF = dock.dpf
USER    NEWDPF move	lig1bai.pdbqt
USER    NEWDPF about	-1.190000 15.842000 33.892000
USER    NEWDPF tran0	-0.106905 16.584897 34.368138
USER    NEWDPF axisangle0	-0.005373 0.952143 0.305604 157.291695
USER    NEWDPF quaternion0	-0.005268 0.933509 0.299623 0.196873
USER    NEWDPF dihe0	-19.73 -179.96 88.82 100.59 -52.51 -147.07 -179.97 24.44 -179.61 -170.02 -91.75 -179.10 2.01 180.00 4.35 11.63 -50.95 -104.17 130.79 154.29 -149.16 140.47 -41.44 -102.50 177.46 -43.62 153.90 12.64 175.02 
USER  
USER                              x       y       z    vdW   Elec        q     RMS 
ATOM      1  CA3 0Q4 A 125       0.815  17.122  36.467 -0.28 -0.16    +0.177     3.876
ATOM      2  CB3 0Q4 A 125       1.028  16.166  37.679 -0.44 -0.03    +0.073     3.876
ATOM      3  CG4 0Q4 A 125       2.384  15.590  37.797 -0.36 +0.02    -0.056     3.876
ATOM      4  CD1 0Q4 A 125       3.276  16.066  38.747 -0.36 -0.00    +0.007     3.876
ATOM      5  CE1 0Q4 A 125       4.559  15.491  38.897 -0.27 -0.00    +0.001     3.876
ATOM      6  CZ1 0Q4 A 125       4.954  14.428  38.077 -0.23 -0.00    +0.000     3.876
ATOM      7  CE2 0Q4 A 125       4.071  13.946  37.112 -0.30 -0.00    +0.001     3.876
ATOM      8  CD2 0Q4 A 125       2.778  14.537  36.977 -0.31 -0.00    +0.007     3.876
ATOM      9  C3  0Q4 A 125       1.550  16.739  35.153 -0.19 -0.20    +0.241     3.876
ATOM     10  O2  0Q4 A 125       2.201  17.586  34.537 -0.20 +0.29    -0.271     3.876
ATOM     11  N4  0Q4 A 125       1.528  15.451  34.806 -0.13 +0.15    -0.346     3.876
ATOM     12  H4  0Q4 A 125       0.990  14.814  35.324 +0.08 -0.03    +0.163     3.876
ATOM     13  CA4 0Q4 A 125       2.240  14.926  33.638 +0.15 -0.07    +0.177     3.876
ATOM     14  CB4 0Q4 A 125       1.383  15.172  32.364 +1.04 -0.02    +0.045     3.876
ATOM     15  CG5 0Q4 A 125       0.213  16.130  32.486 -0.27 -0.09    +0.116     3.876
ATOM     16  CD3 0Q4 A 125       0.251  17.264  31.450 -0.26 -0.21    +0.172     3.876
ATOM     17  OE1 0Q4 A 125      -0.794  17.546  30.835 +0.02 +0.80    -0.648     3.876
ATOM     18  OE2 0Q4 A 125       1.323  17.891  31.239 +0.05 +1.10    -0.648     3.876
ATOM     19  C4  0Q4 A 125       3.654  15.474  33.419 -0.17 -0.15    +0.241     3.876
ATOM     20  O3  0Q4 A 125       4.648  14.927  33.901 +0.81 +0.21    -0.271     3.876
ATOM     21  N5  0Q4 A 125       3.721  16.651  32.820 -0.12 +0.25    -0.346     3.876
ATOM     22  H5  0Q4 A 125       2.900  17.118  32.546 +0.09 -0.15    +0.163     3.876
ATOM     23  CA5 0Q4 A 125       4.997  17.275  32.548 -0.23 -0.11    +0.172     3.876
ATOM     24  CB5 0Q4 A 125       5.105  18.533  33.389 +4.11 -0.03    +0.042     3.876
ATOM     25  C5  0Q4 A 125       6.260  16.405  32.767 -0.21 -0.14    +0.240     3.876
ATOM     26  O4  0Q4 A 125       6.823  15.826  31.835 -0.22 +0.19    -0.271     3.876
ATOM     27  N6  0Q4 A 125       6.643  16.292  34.035 -0.06 +0.18    -0.346     3.876
ATOM     28  H6  0Q4 A 125       6.118  16.752  34.712 +0.08 -0.07    +0.163     3.876
ATOM     29  CA6 0Q4 A 125       7.751  15.458  34.481 -0.20 -0.09    +0.176     3.876
ATOM     30  CB6 0Q4 A 125       7.752  15.417  36.031 -0.20 -0.01    +0.035     3.876
ATOM     31  CG6 0Q4 A 125       7.168  16.659  36.792 -0.21 +0.00    +0.002     3.876
ATOM     32  CD4 0Q4 A 125       6.682  17.835  35.857 -0.31 +0.00    -0.004     3.876
ATOM     33  CE  0Q4 A 125       5.462  18.522  36.437 -0.07 -0.00    +0.005     3.876
ATOM     34  C6  0Q4 A 125       7.480  14.053  33.917 -0.01 -0.14    +0.238     3.876
ATOM     35  O5  0Q4 A 125       6.969  13.912  32.768 -0.22 +0.15    -0.271     3.876
ATOM     36  N7  0Q4 A 125       7.762  13.088  34.671 +0.16 +0.12    -0.368     3.876
ATOM     37  H72 0Q4 A 125       8.175  13.201  35.596 +0.03 -0.04    +0.159     3.876
ATOM     38  H71 0Q4 A 125       7.582  12.156  34.297 +0.55 -0.01    +0.159     3.876
ATOM     39  N3  0Q4 A 125      -0.615  17.091  36.138 -0.12 +0.40    -0.387     3.876
ATOM     40  C2  0Q4 A 125      -1.433  16.130  36.529 +0.16 -0.05    +0.081     3.876
ATOM     41  H3  0Q4 A 125      -0.988  17.828  35.618 -0.03 -0.26    +0.159     3.876
ATOM     42  CA2 0Q4 A 125      -2.892  16.300  36.126 -0.07 -0.08    +0.123     3.876
ATOM     43  CB2 0Q4 A 125      -3.786  15.163  36.677 +0.70 -0.02    +0.034     3.876
ATOM     44  CG3 0Q4 A 125      -5.026  14.814  35.806 -0.42 +0.01    -0.020     3.876
ATOM     45  CD1 0Q4 A 125      -6.201  15.767  36.026 -0.51 -0.01    +0.009     3.876
ATOM     46  CD2 0Q4 A 125      -4.642  14.802  34.338 -0.18 -0.01    +0.009     3.876
ATOM     47  N2  0Q4 A 125      -3.154  16.483  34.710 -0.09 +0.28    -0.350     3.876
ATOM     48  C1  0Q4 A 125      -4.036  17.372  34.290 -0.25 -0.22    +0.241     3.876
ATOM     49  O1  0Q4 A 125      -4.542  18.176  35.063 +0.02 +0.23    -0.271     3.876
ATOM     50  HN2 0Q4 A 125      -2.693  15.907  34.061 +0.09 -0.12    +0.163     3.876
ATOM     51  CA1 0Q4 A 125      -4.280  17.419  32.759 +0.16 -0.19    +0.180     3.876
ATOM     52  CB1 0Q4 A 125      -5.830  17.268  32.334 -0.33 -0.01    +0.009     3.876
ATOM     53  CG1 0Q4 A 125      -6.732  17.026  33.547 -0.44 -0.01    +0.012     3.876
ATOM     54  CG2 0Q4 A 125      -6.329  18.545  31.627 +0.34 -0.02    +0.012     3.876
ATOM     55  N1  0Q4 A 125      -3.463  16.439  32.042 -0.09 +0.29    -0.346     3.876
ATOM     56  C   0Q4 A 125      -3.340  16.420  30.705 -0.16 -0.19    +0.249     3.876
ATOM     57  O   0Q4 A 125      -3.928  17.229  29.963 -0.13 +0.21    -0.271     3.876
ATOM     58  H1  0Q4 A 125      -2.979  15.800  32.609 +0.09 -0.12    +0.163     3.876
ATOM     59  CA  0Q4 A 125      -2.480  15.269  30.092 -0.23 -0.14    +0.274     3.876
ATOM     60  N   0Q4 A 125      -1.569  14.729  31.148 -0.28 +0.03    -0.067     3.876
ATOM     61  H   0Q4 A 125      -1.698  13.715  31.272 +0.36 -0.01    +0.275     3.876
ATOM     62  H2  0Q4 A 125      -0.595  14.945  30.819 +0.17 -0.13    +0.275     3.876
ATOM     63  HN3 0Q4 A 125      -1.747  15.198  32.050 +0.15 -0.14    +0.275     3.876
ATOM     64  CB  0Q4 A 125      -3.329  14.122  29.529 -0.28 -0.02    +0.044     3.876
ATOM     65  CG  0Q4 A 125      -4.624  13.742  30.326 +0.43 -0.01    +0.023     3.876
ATOM     66  CD  0Q4 A 125      -5.521  14.941  30.795 -0.12 -0.10    +0.138     3.876
ATOM     67  NE  0Q4 A 125      -6.815  15.049  30.108 -0.15 +0.15    -0.227     3.876
ATOM     68  CZ  0Q4 A 125      -7.155  16.040  29.279 +0.08 -0.45    +0.665     3.876
ATOM     69  NH1 0Q4 A 125      -6.283  17.001  29.023 -0.06 +0.15    -0.235     3.876
ATOM     70  NH2 0Q4 A 125      -8.405  16.138  28.804 -0.06 +0.16    -0.235     3.876
ATOM     71 HH11 0Q4 A 125      -5.377  16.982  29.443 +0.09 -0.12    +0.174     3.876
ATOM     72 HH12 0Q4 A 125      -6.528  17.748  28.403 +0.08 -0.10    +0.174     3.876
ATOM     73 HH21 0Q4 A 125      -9.100  15.469  29.061 +0.04 -0.12    +0.174     3.876
ATOM     74 HH22 0Q4 A 125      -8.638  16.891  28.185 +0.05 -0.11    +0.174     3.876
ATOM     75  HE  0Q4 A 125      -7.487  14.349  30.263 +0.05 -0.12    +0.177     3.876
TER
ENDMDL


AVSFLD: # AVS field file
AVSFLD: #
AVSFLD: # Created by AutoDock
AVSFLD: #
AVSFLD: ndim=2           # number of dimensions in the field
AVSFLD: nspace=1         # number of physical coordinates
AVSFLD: veclen=7         # vector size
AVSFLD: dim1=75          # atoms
AVSFLD: dim2=10          # conformations
AVSFLD: data=Real       # data type (byte,integer,Real,double)
AVSFLD: field=uniform    # field coordinate layout
AVSFLD: label= x y z vdW Elec q RMS
AVSFLD: variable 1 file = dock.dlg.pdb filetype = ascii offset = 5 stride = 12
AVSFLD: variable 2 file = dock.dlg.pdb filetype = ascii offset = 6 stride = 12
AVSFLD: variable 3 file = dock.dlg.pdb filetype = ascii offset = 7 stride = 12
AVSFLD: variable 4 file = dock.dlg.pdb filetype = ascii offset = 8 stride = 12
AVSFLD: variable 5 file = dock.dlg.pdb filetype = ascii offset = 9 stride = 12
AVSFLD: variable 6 file = dock.dlg.pdb filetype = ascii offset = 10 stride = 12
AVSFLD: variable 7 file = dock.dlg.pdb filetype = ascii offset = 11 stride = 12
AVSFLD: # end of file

>>> Closing the docking parameter file (DPF)...
This docking finished at:			11:12 45" p.m., 12/08/2025


________________________________________________________________________________

.\autodock4.exe: Successful Completion on "LAPTOP-PFTQOH6G"

Real= 57m 45.13s,  CPU= 6m 26.34s,  System= 19.58s
________________________________________________________________________________

