REMARK  29 active torsions:
REMARK  status: ('A' for Active; 'I' for Inactive)
REMARK    1  A    between atoms: N_1  and  CA_2 
REMARK    2  A    between atoms: CA_2  and  C_9 
REMARK    3  A    between atoms: CA_2  and  CB_11 
REMARK    4  A    between atoms: CA1_3  and  CB1_12 
REMARK    5  A    between atoms: CA1_3  and  C1_42 
REMARK    6  A    between atoms: CA1_3  and  N1_43 
REMARK    7  A    between atoms: CA2_4  and  CB2_13 
REMARK    8  A    between atoms: CA2_4  and  C2_45 
REMARK    9  A    between atoms: CA2_4  and  N2_46 
REMARK   10  A    between atoms: CA3_5  and  CB3_14 
REMARK   11  A    between atoms: CA3_5  and  C3_48 
REMARK   12  A    between atoms: CA3_5  and  N3_49 
REMARK   13  A    between atoms: CA4_6  and  CB4_15 
REMARK   14  A    between atoms: CA4_6  and  C4_51 
REMARK   15  A    between atoms: CA4_6  and  N4_52 
REMARK   16  A    between atoms: CA5_7  and  C5_54 
REMARK   17  A    between atoms: CA5_7  and  N5_55 
REMARK   18  A    between atoms: CA6_8  and  CB6_17 
REMARK   19  A    between atoms: CA6_8  and  C6_57 
REMARK   20  A    between atoms: CA6_8  and  N6_58 
REMARK       I    between atoms: C_9  and  N1_43 
REMARK   21  A    between atoms: CB_11  and  CG_18 
REMARK   22  A    between atoms: CB2_13  and  CG3_21 
REMARK   23  A    between atoms: CB3_14  and  CG4_22 
REMARK   24  A    between atoms: CB4_15  and  CG5_23 
REMARK   25  A    between atoms: CB6_17  and  CG6_24 
REMARK   26  A    between atoms: CG_18  and  CD_25 
REMARK   27  A    between atoms: CG5_23  and  CD3_30 
REMARK   28  A    between atoms: CG6_24  and  CD4_31 
REMARK   29  A    between atoms: CD_25  and  NE_35 
REMARK       I    between atoms: NE_35  and  CZ_38 
REMARK       I    between atoms: CZ_38  and  NH1_40 
REMARK       I    between atoms: C1_42  and  N2_46 
REMARK       I    between atoms: C3_48  and  N4_52 
REMARK       I    between atoms: C4_51  and  N5_55 
REMARK       I    between atoms: C5_54  and  N6_58 
REMARK       I    between atoms: C6_57  and  N7_59 
ROOT
HETATM    1  CA3 0Q4 A 125      -1.344  17.561  32.290  1.00 16.89     0.177 C 
ENDROOT
BRANCH   1   2
HETATM    2  CB3 0Q4 A 125      -0.977  17.480  30.778  1.00 18.22     0.073 C 
BRANCH   2   3
HETATM    3  CG4 0Q4 A 125      -2.103  17.174  29.871  1.00 21.59    -0.056 A 
HETATM    4  CD1 0Q4 A 125      -2.597  15.881  29.766  1.00 22.99     0.007 A 
HETATM    5  CE1 0Q4 A 125      -3.703  15.588  28.935  1.00 24.00     0.001 A 
HETATM    6  CZ1 0Q4 A 125      -4.316  16.604  28.194  1.00 25.64     0.000 A 
HETATM    7  CE2 0Q4 A 125      -3.823  17.905  28.283  1.00 27.27     0.001 A 
HETATM    8  CD2 0Q4 A 125      -2.708  18.184  29.130  1.00 24.65     0.007 A 
ENDBRANCH   2   3
ENDBRANCH   1   2
BRANCH   1   9
HETATM    9  C3  0Q4 A 125      -2.452  16.588  32.781  1.00 15.06     0.241 C 
HETATM   10  O2  0Q4 A 125      -2.205  15.388  32.924  1.00 12.51    -0.271 OA
HETATM   11  N4  0Q4 A 125      -3.615  17.134  33.138  1.00 14.54    -0.346 N 
HETATM   12  H4  0Q4 A 125      -3.768  18.094  33.000  1.00 15.00     0.163 HD
BRANCH  11  13
HETATM   13  CA4 0Q4 A 125      -4.726  16.356  33.693  1.00 15.81     0.177 C 
BRANCH  13  14
HETATM   14  CB4 0Q4 A 125      -4.749  16.528  35.238  1.00 17.07     0.045 C 
BRANCH  14  15
HETATM   15  CG5 0Q4 A 125      -5.782  15.732  36.012  1.00 18.50     0.116 C 
BRANCH  15  16
HETATM   16  CD3 0Q4 A 125      -7.133  16.453  36.133  1.00 26.68     0.172 C 
HETATM   17  OE1 0Q4 A 125      -7.141  17.657  36.450  1.00 29.71    -0.648 OA
HETATM   18  OE2 0Q4 A 125      -8.204  15.829  35.910  1.00 31.35    -0.648 OA
ENDBRANCH  15  16
ENDBRANCH  14  15
ENDBRANCH  13  14
BRANCH  13  19
HETATM   19  C4  0Q4 A 125      -6.111  16.673  33.120  1.00 17.52     0.241 C 
HETATM   20  O3  0Q4 A 125      -6.534  17.828  33.035  1.00 17.50    -0.271 OA
HETATM   21  N5  0Q4 A 125      -6.878  15.624  32.875  1.00 19.61    -0.346 N 
HETATM   22  H5  0Q4 A 125      -6.553  14.715  33.060  1.00 15.00     0.163 HD
BRANCH  21  23
HETATM   23  CA5 0Q4 A 125      -8.207  15.787  32.326  1.00 21.82     0.172 C 
HETATM   24  CB5 0Q4 A 125      -8.114  15.709  30.814  1.00 22.24     0.042 C 
BRANCH  23  25
HETATM   25  C5  0Q4 A 125      -9.293  14.800  32.823  1.00 24.09     0.240 C 
HETATM   26  O4  0Q4 A 125      -9.026  13.635  33.125  1.00 20.88    -0.271 OA
HETATM   27  N6  0Q4 A 125     -10.526  15.295  32.840  1.00 27.66    -0.346 N 
HETATM   28  H6  0Q4 A 125     -10.653  16.214  32.548  1.00 15.00     0.163 HD
BRANCH  27  29
HETATM   29  CA6 0Q4 A 125     -11.710  14.522  33.191  1.00 31.09     0.176 C 
BRANCH  29  30
HETATM   30  CB6 0Q4 A 125     -12.964  15.412  32.992  1.00 32.55     0.035 C 
BRANCH  30  31
HETATM   31  CG6 0Q4 A 125     -14.314  14.697  32.633  1.00 32.73     0.002 C 
BRANCH  31  32
HETATM   32  CD4 0Q4 A 125     -14.579  14.530  31.085  1.00 31.59    -0.004 C 
HETATM   33  CE  0Q4 A 125     -15.682  13.524  30.828  1.00 23.29     0.005 C 
ENDBRANCH  31  32
ENDBRANCH  30  31
ENDBRANCH  29  30
BRANCH  29  34
HETATM   34  C6  0Q4 A 125     -11.748  13.334  32.215  1.00 33.78     0.238 C 
HETATM   35  O5  0Q4 A 125     -11.875  12.152  32.650  1.00 34.60    -0.271 OA
HETATM   36  N7  0Q4 A 125     -11.613  13.610  30.997  1.00 36.53    -0.368 N 
ATOM     37  H72 0Q4 A 125     -11.511  14.562  30.646  1.00  0.00     0.159 HD
ATOM     38  H71 0Q4 A 125     -11.638  12.822  30.350  1.00  0.00     0.159 HD
ENDBRANCH  29  34
ENDBRANCH  27  29
ENDBRANCH  23  25
ENDBRANCH  21  23
ENDBRANCH  13  19
ENDBRANCH  11  13
ENDBRANCH   1   9
BRANCH   1  39
HETATM   39  N3  0Q4 A 125      -0.141  17.196  33.047  1.00 16.64    -0.387 N 
HETATM   40  C2  0Q4 A 125      -0.003  17.405  34.344  1.00 17.56     0.081 C 
HETATM   41  H3  0Q4 A 125       0.591  16.758  32.572  1.00 15.00     0.159 HD
BRANCH  40  42
HETATM   42  CA2 0Q4 A 125       1.302  16.914  34.957  1.00 17.96     0.123 C 
BRANCH  42  43
HETATM   43  CB2 0Q4 A 125       1.490  17.417  36.409  1.00 19.32     0.034 C 
BRANCH  43  44
HETATM   44  CG3 0Q4 A 125       2.859  17.069  37.059  1.00 21.12    -0.020 C 
HETATM   45  CD1 0Q4 A 125       3.007  17.622  38.476  1.00 21.22     0.009 C 
HETATM   46  CD2 0Q4 A 125       3.060  15.565  37.071  1.00 17.47     0.009 C 
ENDBRANCH  43  44
ENDBRANCH  42  43
BRANCH  42  47
HETATM   47  N2  0Q4 A 125       2.510  17.166  34.194  1.00 17.78    -0.350 N 
HETATM   48  C1  0Q4 A 125       2.998  16.256  33.370  1.00 17.14     0.241 C 
HETATM   49  O1  0Q4 A 125       2.367  15.241  33.103  1.00 18.87    -0.271 OA
HETATM   50  HN2 0Q4 A 125       2.990  18.014  34.326  1.00 15.00     0.163 HD
BRANCH  48  51
HETATM   51  CA1 0Q4 A 125       4.334  16.617  32.670  1.00 18.90     0.180 C 
BRANCH  51  52
HETATM   52  CB1 0Q4 A 125       4.330  16.367  31.075  1.00 19.28     0.009 C 
HETATM   53  CG1 0Q4 A 125       3.098  16.981  30.406  1.00 20.08     0.012 C 
HETATM   54  CG2 0Q4 A 125       5.579  16.993  30.422  1.00 19.54     0.012 C 
ENDBRANCH  51  52
BRANCH  51  55
HETATM   55  N1  0Q4 A 125       5.477  15.939  33.284  1.00 19.10    -0.346 N 
HETATM   56  C   0Q4 A 125       6.583  16.583  33.691  1.00 21.89     0.249 C 
HETATM   57  O   0Q4 A 125       6.732  17.813  33.564  1.00 22.48    -0.271 OA
HETATM   58  H1  0Q4 A 125       5.375  14.971  33.407  1.00 15.00     0.163 HD
BRANCH  56  59
HETATM   59  CA  0Q4 A 125       7.738  15.704  34.269  1.00 21.76     0.274 C 
BRANCH  59  60
HETATM   60  N   0Q4 A 125       9.011  16.052  33.566  1.00 21.27    -0.067 N 
HETATM   61  H   0Q4 A 125       8.921  15.936  32.547  1.00 15.00     0.275 HD
HETATM   62  H2  0Q4 A 125       9.206  17.055  33.813  1.00 15.00     0.275 HD
HETATM   63  HN3 0Q4 A 125       9.782  15.453  33.901  1.00 15.00     0.275 HD
ENDBRANCH  59  60
BRANCH  59  64
HETATM   64  CB  0Q4 A 125       7.933  15.891  35.779  1.00 21.80     0.044 C 
BRANCH  64  65
HETATM   65  CG  0Q4 A 125       6.774  15.395  36.710  1.00 26.69     0.023 C 
BRANCH  65  66
HETATM   66  CD  0Q4 A 125       6.949  13.961  37.323  1.00 29.76     0.138 C 
BRANCH  66  67
HETATM   67  NE  0Q4 A 125       7.449  13.937  38.704  1.00 32.26    -0.227 N 
HETATM   68  CZ  0Q4 A 125       6.771  14.379  39.766  1.00 34.72     0.665 C 
HETATM   69  NH1 0Q4 A 125       5.552  14.865  39.602  1.00 35.07    -0.235 N 
HETATM   70  NH2 0Q4 A 125       7.354  14.451  40.972  1.00 35.86    -0.235 N 
HETATM   71 HH11 0Q4 A 125       5.142  14.896  38.692  1.00 15.00     0.174 HD
HETATM   72 HH12 0Q4 A 125       5.035  15.199  40.392  1.00 15.00     0.174 HD
HETATM   73 HH21 0Q4 A 125       8.305  14.172  41.093  1.00 15.00     0.174 HD
HETATM   74 HH22 0Q4 A 125       6.826  14.788  41.754  1.00 15.00     0.174 HD
HETATM   75  HE  0Q4 A 125       8.347  13.573  38.870  1.00 15.00     0.177 HD
ENDBRANCH  66  67
ENDBRANCH  65  66
ENDBRANCH  64  65
ENDBRANCH  59  64
ENDBRANCH  56  59
ENDBRANCH  51  55
ENDBRANCH  48  51
ENDBRANCH  42  47
ENDBRANCH  40  42
ENDBRANCH   1  39
TORSDOF 29
