MODEL 1
REMARK VINA RESULT:    -9.023      0.000      0.000
REMARK INTER + INTRA:         -27.714
REMARK INTER:                 -24.055
REMARK INTRA:                  -3.659
REMARK UNBOUND:                -3.659
REMARK  29 active torsions:
REMARK  status: ('A' for Active; 'I' for Inactive)
REMARK    1  A    between atoms: N_1  and  CA_2 
REMARK    2  A    between atoms: CA_2  and  C_9 
REMARK    3  A    between atoms: CA_2  and  CB_11 
REMARK    4  A    between atoms: CA1_3  and  CB1_12 
REMARK    5  A    between atoms: CA1_3  and  C1_42 
REMARK    6  A    between atoms: CA1_3  and  N1_43 
REMARK    7  A    between atoms: CA2_4  and  CB2_13 
REMARK    8  A    between atoms: CA2_4  and  C2_45 
REMARK    9  A    between atoms: CA2_4  and  N2_46 
REMARK   10  A    between atoms: CA3_5  and  CB3_14 
REMARK   11  A    between atoms: CA3_5  and  C3_48 
REMARK   12  A    between atoms: CA3_5  and  N3_49 
REMARK   13  A    between atoms: CA4_6  and  CB4_15 
REMARK   14  A    between atoms: CA4_6  and  C4_51 
REMARK   15  A    between atoms: CA4_6  and  N4_52 
REMARK   16  A    between atoms: CA5_7  and  C5_54 
REMARK   17  A    between atoms: CA5_7  and  N5_55 
REMARK   18  A    between atoms: CA6_8  and  CB6_17 
REMARK   19  A    between atoms: CA6_8  and  C6_57 
REMARK   20  A    between atoms: CA6_8  and  N6_58 
REMARK       I    between atoms: C_9  and  N1_43 
REMARK   21  A    between atoms: CB_11  and  CG_18 
REMARK   22  A    between atoms: CB2_13  and  CG3_21 
REMARK   23  A    between atoms: CB3_14  and  CG4_22 
REMARK   24  A    between atoms: CB4_15  and  CG5_23 
REMARK   25  A    between atoms: CB6_17  and  CG6_24 
REMARK   26  A    between atoms: CG_18  and  CD_25 
REMARK   27  A    between atoms: CG5_23  and  CD3_30 
REMARK   28  A    between atoms: CG6_24  and  CD4_31 
REMARK   29  A    between atoms: CD_25  and  NE_35 
REMARK       I    between atoms: NE_35  and  CZ_38 
REMARK       I    between atoms: CZ_38  and  NH1_40 
REMARK       I    between atoms: C1_42  and  N2_46 
REMARK       I    between atoms: C3_48  and  N4_52 
REMARK       I    between atoms: C4_51  and  N5_55 
REMARK       I    between atoms: C5_54  and  N6_58 
REMARK       I    between atoms: C6_57  and  N7_59 
ROOT
HETATM    1  CA3 0Q4 A 125      -1.457  17.524  31.641  1.00 16.89     0.177 C 
ENDROOT
BRANCH   1   2
HETATM    2  CB3 0Q4 A 125      -1.309  17.334  30.102  1.00 18.22     0.073 C 
BRANCH   2   3
HETATM    3  CG4 0Q4 A 125      -2.561  17.020  29.382  1.00 21.59    -0.056 A 
HETATM    4  CD1 0Q4 A 125      -2.883  15.709  29.059  1.00 22.99     0.007 A 
HETATM    5  CE1 0Q4 A 125      -4.100  15.395  28.411  1.00 24.00     0.001 A 
HETATM    6  CZ1 0Q4 A 125      -5.002  16.411  28.076  1.00 25.64     0.000 A 
HETATM    7  CE2 0Q4 A 125      -4.686  17.733  28.386  1.00 27.27     0.001 A 
HETATM    8  CD2 0Q4 A 125      -3.454  18.031  29.044  1.00 24.65     0.007 A 
ENDBRANCH   2   3
ENDBRANCH   1   2
BRANCH   1   9
HETATM    9  C3  0Q4 A 125      -2.492  16.608  32.351  1.00 15.06     0.241 C 
HETATM   10  O2  0Q4 A 125      -2.226  15.423  32.569  1.00 12.51    -0.271 OA
HETATM   11  N4  0Q4 A 125      -3.604  17.193  32.798  1.00 14.54    -0.346 N 
HETATM   12  H4  0Q4 A 125      -3.776  18.138  32.594  1.00 15.00     0.163 HD
BRANCH  11  13
HETATM   13  CA4 0Q4 A 125      -4.635  16.476  33.553  1.00 15.81     0.177 C 
BRANCH  13  14
HETATM   14  CB4 0Q4 A 125      -4.549  16.885  35.051  1.00 17.07     0.045 C 
BRANCH  14  15
HETATM   15  CG5 0Q4 A 125      -5.201  15.963  36.063  1.00 18.50     0.116 C 
BRANCH  15  16
HETATM   16  CD3 0Q4 A 125      -6.432  16.584  36.741  1.00 26.68     0.172 C 
HETATM   17  OE1 0Q4 A 125      -6.827  16.102  37.819  1.00 29.71    -0.648 OA
HETATM   18  OE2 0Q4 A 125      -7.019  17.563  36.208  1.00 31.35    -0.648 OA
ENDBRANCH  15  16
ENDBRANCH  14  15
ENDBRANCH  13  14
BRANCH  13  19
HETATM   19  C4  0Q4 A 125      -6.072  16.657  33.053  1.00 17.52     0.241 C 
HETATM   20  O3  0Q4 A 125      -6.606  17.767  32.988  1.00 17.50    -0.271 OA
HETATM   21  N5  0Q4 A 125      -6.749  15.539  32.852  1.00 19.61    -0.346 N 
HETATM   22  H5  0Q4 A 125      -6.330  14.666  33.021  1.00 15.00     0.163 HD
BRANCH  21  23
HETATM   23  CA5 0Q4 A 125      -8.114  15.573  32.373  1.00 21.82     0.172 C 
HETATM   24  CB5 0Q4 A 125      -8.103  15.330  30.876  1.00 22.24     0.042 C 
BRANCH  23  25
HETATM   25  C5  0Q4 A 125      -9.112  14.594  33.042  1.00 24.09     0.240 C 
HETATM   26  O4  0Q4 A 125      -8.812  13.424  33.287  1.00 20.88    -0.271 OA
HETATM   27  N6  0Q4 A 125     -10.317  15.104  33.272  1.00 27.66    -0.346 N 
HETATM   28  H6  0Q4 A 125     -10.481  16.026  33.011  1.00 15.00     0.163 HD
BRANCH  27  29
HETATM   29  CA6 0Q4 A 125     -11.434  14.342  33.815  1.00 31.09     0.176 C 
BRANCH  29  30
HETATM   30  CB6 0Q4 A 125     -12.618  15.309  34.076  1.00 32.55     0.035 C 
BRANCH  30  31
HETATM   31  CG6 0Q4 A 125     -13.420  15.132  35.413  1.00 32.73     0.002 C 
BRANCH  31  32
HETATM   32  CD4 0Q4 A 125     -12.814  14.066  36.409  1.00 31.59    -0.004 C 
HETATM   33  CE  0Q4 A 125     -13.590  14.035  37.710  1.00 23.29     0.005 C 
ENDBRANCH  31  32
ENDBRANCH  30  31
ENDBRANCH  29  30
BRANCH  29  34
HETATM   34  C6  0Q4 A 125     -11.819  13.319  32.733  1.00 33.78     0.238 C 
HETATM   35  O5  0Q4 A 125     -11.972  13.686  31.531  1.00 34.60    -0.271 OA
HETATM   36  N7  0Q4 A 125     -12.000  12.139  33.121  1.00 36.53    -0.368 N 
ATOM     37  H72 0Q4 A 125     -11.877  11.842  34.089  1.00  0.00     0.159 HD
ATOM     38  H71 0Q4 A 125     -12.255  11.461  32.403  1.00  0.00     0.159 HD
ENDBRANCH  29  34
ENDBRANCH  27  29
ENDBRANCH  23  25
ENDBRANCH  21  23
ENDBRANCH  13  19
ENDBRANCH  11  13
ENDBRANCH   1   9
BRANCH   1  39
HETATM   39  N3  0Q4 A 125      -0.162  17.189  32.244  1.00 16.64    -0.387 N 
HETATM   40  C2  0Q4 A 125       0.345  17.823  33.286  1.00 17.56     0.081 C 
HETATM   41  H3  0Q4 A 125       0.346  16.445  31.869  1.00 15.00     0.159 HD
BRANCH  40  42
HETATM   42  CA2 0Q4 A 125       1.681  17.297  33.795  1.00 17.96     0.123 C 
BRANCH  42  43
HETATM   43  CB2 0Q4 A 125       2.001  17.802  35.223  1.00 19.32     0.034 C 
BRANCH  43  44
HETATM   44  CG3 0Q4 A 125       1.320  17.009  36.374  1.00 21.12    -0.020 C 
HETATM   45  CD1 0Q4 A 125       1.313  15.499  36.139  1.00 21.22     0.009 C 
HETATM   46  CD2 0Q4 A 125       2.004  17.319  37.693  1.00 17.47     0.009 C 
ENDBRANCH  43  44
ENDBRANCH  42  43
BRANCH  42  47
HETATM   47  N2  0Q4 A 125       2.829  17.510  32.935  1.00 17.78    -0.350 N 
HETATM   48  C1  0Q4 A 125       3.673  16.528  32.669  1.00 17.14     0.241 C 
HETATM   49  O1  0Q4 A 125       3.429  15.377  33.006  1.00 18.87    -0.271 OA
HETATM   50  HN2 0Q4 A 125       2.999  18.411  32.578  1.00 15.00     0.163 HD
BRANCH  48  51
HETATM   51  CA1 0Q4 A 125       4.900  16.902  31.798  1.00 18.90     0.180 C 
BRANCH  51  52
HETATM   52  CB1 0Q4 A 125       4.771  16.454  30.252  1.00 19.28     0.009 C 
HETATM   53  CG1 0Q4 A 125       5.729  17.237  29.351  1.00 20.08     0.012 C 
HETATM   54  CG2 0Q4 A 125       5.093  14.955  30.090  1.00 19.54     0.012 C 
ENDBRANCH  51  52
BRANCH  51  55
HETATM   55  N1  0Q4 A 125       6.151  16.397  32.366  1.00 19.10    -0.346 N 
HETATM   56  C   0Q4 A 125       6.867  17.069  33.282  1.00 21.89     0.249 C 
HETATM   57  O   0Q4 A 125       6.530  18.188  33.713  1.00 22.48    -0.271 OA
HETATM   58  H1  0Q4 A 125       6.428  15.510  32.051  1.00 15.00     0.163 HD
BRANCH  56  59
HETATM   59  CA  0Q4 A 125       8.213  16.420  33.740  1.00 21.76     0.274 C 
BRANCH  59  60
HETATM   60  N   0Q4 A 125       9.252  16.669  32.695  1.00 21.27    -0.067 N 
HETATM   61  H   0Q4 A 125       9.789  17.524  32.894  1.00 15.00     0.275 HD
HETATM   62  H2  0Q4 A 125       9.876  15.823  32.709  1.00 15.00     0.275 HD
HETATM   63  HN3 0Q4 A 125       8.812  16.762  31.765  1.00 15.00     0.275 HD
ENDBRANCH  59  60
BRANCH  59  64
HETATM   64  CB  0Q4 A 125       8.713  16.967  35.083  1.00 21.80     0.044 C 
BRANCH  64  65
HETATM   65  CG  0Q4 A 125       8.503  16.057  36.342  1.00 26.69     0.023 C 
BRANCH  65  66
HETATM   66  CD  0Q4 A 125       7.111  16.180  37.056  1.00 29.76     0.138 C 
BRANCH  66  67
HETATM   67  NE  0Q4 A 125       6.486  14.900  37.414  1.00 32.26    -0.227 N 
HETATM   68  CZ  0Q4 A 125       5.464  14.343  36.760  1.00 34.72     0.665 C 
HETATM   69  NH1 0Q4 A 125       4.963  14.953  35.698  1.00 35.07    -0.235 N 
HETATM   70  NH2 0Q4 A 125       4.861  13.243  37.235  1.00 35.86    -0.235 N 
HETATM   71 HH11 0Q4 A 125       5.350  15.820  35.388  1.00 15.00     0.174 HD
HETATM   72 HH12 0Q4 A 125       4.196  14.544  35.201  1.00 15.00     0.174 HD
HETATM   73 HH21 0Q4 A 125       5.171  12.823  38.086  1.00 15.00     0.174 HD
HETATM   74 HH22 0Q4 A 125       4.094  12.845  36.728  1.00 15.00     0.174 HD
HETATM   75  HE  0Q4 A 125       6.837  14.409  38.190  1.00 15.00     0.177 HD
ENDBRANCH  66  67
ENDBRANCH  65  66
ENDBRANCH  64  65
ENDBRANCH  59  64
ENDBRANCH  56  59
ENDBRANCH  51  55
ENDBRANCH  48  51
ENDBRANCH  42  47
ENDBRANCH  40  42
ENDBRANCH   1  39
TORSDOF 29
                                                                                                                                                                               
ENDMDL
MODEL 2
REMARK VINA RESULT:    -8.890      1.412      3.221
REMARK INTER + INTRA:         -27.362
REMARK INTER:                 -23.617
REMARK INTRA:                  -3.745
REMARK UNBOUND:                -3.659
REMARK  29 active torsions:
REMARK  status: ('A' for Active; 'I' for Inactive)
REMARK    1  A    between atoms: N_1  and  CA_2 
REMARK    2  A    between atoms: CA_2  and  C_9 
REMARK    3  A    between atoms: CA_2  and  CB_11 
REMARK    4  A    between atoms: CA1_3  and  CB1_12 
REMARK    5  A    between atoms: CA1_3  and  C1_42 
REMARK    6  A    between atoms: CA1_3  and  N1_43 
REMARK    7  A    between atoms: CA2_4  and  CB2_13 
REMARK    8  A    between atoms: CA2_4  and  C2_45 
REMARK    9  A    between atoms: CA2_4  and  N2_46 
REMARK   10  A    between atoms: CA3_5  and  CB3_14 
REMARK   11  A    between atoms: CA3_5  and  C3_48 
REMARK   12  A    between atoms: CA3_5  and  N3_49 
REMARK   13  A    between atoms: CA4_6  and  CB4_15 
REMARK   14  A    between atoms: CA4_6  and  C4_51 
REMARK   15  A    between atoms: CA4_6  and  N4_52 
REMARK   16  A    between atoms: CA5_7  and  C5_54 
REMARK   17  A    between atoms: CA5_7  and  N5_55 
REMARK   18  A    between atoms: CA6_8  and  CB6_17 
REMARK   19  A    between atoms: CA6_8  and  C6_57 
REMARK   20  A    between atoms: CA6_8  and  N6_58 
REMARK       I    between atoms: C_9  and  N1_43 
REMARK   21  A    between atoms: CB_11  and  CG_18 
REMARK   22  A    between atoms: CB2_13  and  CG3_21 
REMARK   23  A    between atoms: CB3_14  and  CG4_22 
REMARK   24  A    between atoms: CB4_15  and  CG5_23 
REMARK   25  A    between atoms: CB6_17  and  CG6_24 
REMARK   26  A    between atoms: CG_18  and  CD_25 
REMARK   27  A    between atoms: CG5_23  and  CD3_30 
REMARK   28  A    between atoms: CG6_24  and  CD4_31 
REMARK   29  A    between atoms: CD_25  and  NE_35 
REMARK       I    between atoms: NE_35  and  CZ_38 
REMARK       I    between atoms: CZ_38  and  NH1_40 
REMARK       I    between atoms: C1_42  and  N2_46 
REMARK       I    between atoms: C3_48  and  N4_52 
REMARK       I    between atoms: C4_51  and  N5_55 
REMARK       I    between atoms: C5_54  and  N6_58 
REMARK       I    between atoms: C6_57  and  N7_59 
ROOT
HETATM    1  CA3 0Q4 A 125      -1.731  17.576  30.831  1.00 16.89     0.177 C 
ENDROOT
BRANCH   1   2
HETATM    2  CB3 0Q4 A 125      -1.715  17.198  29.319  1.00 18.22     0.073 C 
BRANCH   2   3
HETATM    3  CG4 0Q4 A 125      -3.042  16.955  28.716  1.00 21.59    -0.056 A 
HETATM    4  CD1 0Q4 A 125      -3.472  15.664  28.444  1.00 22.99     0.007 A 
HETATM    5  CE1 0Q4 A 125      -4.758  15.420  27.909  1.00 24.00     0.001 A 
HETATM    6  CZ1 0Q4 A 125      -5.621  16.487  27.635  1.00 25.64     0.000 A 
HETATM    7  CE2 0Q4 A 125      -5.197  17.790  27.894  1.00 27.27     0.001 A 
HETATM    8  CD2 0Q4 A 125      -3.897  18.017  28.439  1.00 24.65     0.007 A 
ENDBRANCH   2   3
ENDBRANCH   1   2
BRANCH   1   9
HETATM    9  C3  0Q4 A 125      -2.622  16.694  31.750  1.00 15.06     0.241 C 
HETATM   10  O2  0Q4 A 125      -2.190  15.629  32.196  1.00 12.51    -0.271 OA
HETATM   11  N4  0Q4 A 125      -3.801  17.203  32.109  1.00 14.54    -0.346 N 
HETATM   12  H4  0Q4 A 125      -4.106  18.053  31.723  1.00 15.00     0.163 HD
BRANCH  11  13
HETATM   13  CA4 0Q4 A 125      -4.715  16.526  33.033  1.00 15.81     0.177 C 
BRANCH  13  14
HETATM   14  CB4 0Q4 A 125      -4.457  17.040  34.477  1.00 17.07     0.045 C 
BRANCH  14  15
HETATM   15  CG5 0Q4 A 125      -5.088  16.263  35.616  1.00 18.50     0.116 C 
BRANCH  15  16
HETATM   16  CD3 0Q4 A 125      -6.147  17.069  36.383  1.00 26.68     0.172 C 
HETATM   17  OE1 0Q4 A 125      -6.705  18.021  35.808  1.00 29.71    -0.648 OA
HETATM   18  OE2 0Q4 A 125      -6.439  16.761  37.569  1.00 31.35    -0.648 OA
ENDBRANCH  15  16
ENDBRANCH  14  15
ENDBRANCH  13  14
BRANCH  13  19
HETATM   19  C4  0Q4 A 125      -6.206  16.649  32.702  1.00 17.52     0.241 C 
HETATM   20  O3  0Q4 A 125      -6.810  17.719  32.798  1.00 17.50    -0.271 OA
HETATM   21  N5  0Q4 A 125      -6.831  15.508  32.465  1.00 19.61    -0.346 N 
HETATM   22  H5  0Q4 A 125      -6.345  14.655  32.507  1.00 15.00     0.163 HD
BRANCH  21  23
HETATM   23  CA5 0Q4 A 125      -8.240  15.487  32.134  1.00 21.82     0.172 C 
HETATM   24  CB5 0Q4 A 125      -8.385  15.083  30.679  1.00 22.24     0.042 C 
BRANCH  23  25
HETATM   25  C5  0Q4 A 125      -9.149  14.587  33.008  1.00 24.09     0.240 C 
HETATM   26  O4  0Q4 A 125      -8.723  13.570  33.559  1.00 20.88    -0.271 OA
HETATM   27  N6  0Q4 A 125     -10.420  14.970  33.063  1.00 27.66    -0.346 N 
HETATM   28  H6  0Q4 A 125     -10.679  15.764  32.566  1.00 15.00     0.163 HD
BRANCH  27  29
HETATM   29  CA6 0Q4 A 125     -11.465  14.228  33.756  1.00 31.09     0.176 C 
BRANCH  29  30
HETATM   30  CB6 0Q4 A 125     -12.619  15.203  34.108  1.00 32.55     0.035 C 
BRANCH  30  31
HETATM   31  CG6 0Q4 A 125     -13.434  14.922  35.419  1.00 32.73     0.002 C 
BRANCH  31  32
HETATM   32  CD4 0Q4 A 125     -12.562  14.451  36.648  1.00 31.59    -0.004 C 
HETATM   33  CE  0Q4 A 125     -13.421  13.781  37.700  1.00 23.29     0.005 C 
ENDBRANCH  31  32
ENDBRANCH  30  31
ENDBRANCH  29  30
BRANCH  29  34
HETATM   34  C6  0Q4 A 125     -11.961  13.163  32.764  1.00 33.78     0.238 C 
HETATM   35  O5  0Q4 A 125     -11.964  13.399  31.520  1.00 34.60    -0.271 OA
HETATM   36  N7  0Q4 A 125     -12.382  12.090  33.263  1.00 36.53    -0.368 N 
ATOM     37  H72 0Q4 A 125     -12.379  11.899  34.265  1.00  0.00     0.159 HD
ATOM     38  H71 0Q4 A 125     -12.710  11.384  32.605  1.00  0.00     0.159 HD
ENDBRANCH  29  34
ENDBRANCH  27  29
ENDBRANCH  23  25
ENDBRANCH  21  23
ENDBRANCH  13  19
ENDBRANCH  11  13
ENDBRANCH   1   9
BRANCH   1  39
HETATM   39  N3  0Q4 A 125      -0.363  17.405  31.333  1.00 16.64    -0.387 N 
HETATM   40  C2  0Q4 A 125       0.688  17.241  30.550  1.00 17.56     0.081 C 
HETATM   41  H3  0Q4 A 125      -0.216  17.432  32.298  1.00 15.00     0.159 HD
BRANCH  40  42
HETATM   42  CA2 0Q4 A 125       2.030  17.127  31.260  1.00 17.96     0.123 C 
BRANCH  42  43
HETATM   43  CB2 0Q4 A 125       3.112  16.478  30.362  1.00 19.32     0.034 C 
BRANCH  43  44
HETATM   44  CG3 0Q4 A 125       4.287  15.803  31.123  1.00 21.12    -0.020 C 
HETATM   45  CD1 0Q4 A 125       4.903  14.632  30.357  1.00 21.22     0.009 C 
HETATM   46  CD2 0Q4 A 125       5.359  16.830  31.440  1.00 17.47     0.009 C 
ENDBRANCH  43  44
ENDBRANCH  42  43
BRANCH  42  47
HETATM   47  N2  0Q4 A 125       2.022  16.479  32.558  1.00 17.78    -0.350 N 
HETATM   48  C1  0Q4 A 125       1.873  17.179  33.668  1.00 17.14     0.241 C 
HETATM   49  O1  0Q4 A 125       1.580  18.367  33.633  1.00 18.87    -0.271 OA
HETATM   50  HN2 0Q4 A 125       2.169  15.508  32.608  1.00 15.00     0.163 HD
BRANCH  48  51
HETATM   51  CA1 0Q4 A 125       1.957  16.379  34.994  1.00 18.90     0.180 C 
BRANCH  51  52
HETATM   52  CB1 0Q4 A 125       0.569  16.321  35.817  1.00 19.28     0.009 C 
HETATM   53  CG1 0Q4 A 125       0.625  17.172  37.088  1.00 20.08     0.012 C 
HETATM   54  CG2 0Q4 A 125      -0.598  16.844  34.954  1.00 19.54     0.012 C 
ENDBRANCH  51  52
BRANCH  51  55
HETATM   55  N1  0Q4 A 125       3.036  16.859  35.859  1.00 19.10    -0.346 N 
HETATM   56  C   0Q4 A 125       4.320  16.496  35.704  1.00 21.89     0.249 C 
HETATM   57  O   0Q4 A 125       4.695  15.706  34.818  1.00 22.48    -0.271 OA
HETATM   58  H1  0Q4 A 125       2.765  17.495  36.556  1.00 15.00     0.163 HD
BRANCH  56  59
HETATM   59  CA  0Q4 A 125       5.340  17.049  36.751  1.00 21.76     0.274 C 
BRANCH  59  60
HETATM   60  N   0Q4 A 125       4.832  18.351  37.282  1.00 21.27    -0.067 N 
HETATM   61  H   0Q4 A 125       4.981  18.426  38.298  1.00 15.00     0.275 HD
HETATM   62  H2  0Q4 A 125       5.368  19.096  36.769  1.00 15.00     0.275 HD
HETATM   63  HN3 0Q4 A 125       3.823  18.450  37.088  1.00 15.00     0.275 HD
ENDBRANCH  59  60
BRANCH  59  64
HETATM   64  CB  0Q4 A 125       5.575  16.088  37.922  1.00 21.80     0.044 C 
BRANCH  64  65
HETATM   65  CG  0Q4 A 125       7.053  15.639  38.185  1.00 26.69     0.023 C 
BRANCH  65  66
HETATM   66  CD  0Q4 A 125       7.485  14.278  37.534  1.00 29.76     0.138 C 
BRANCH  66  67
HETATM   67  NE  0Q4 A 125       7.139  14.136  36.114  1.00 32.26    -0.227 N 
HETATM   68  CZ  0Q4 A 125       7.849  14.645  35.104  1.00 34.72     0.665 C 
HETATM   69  NH1 0Q4 A 125       8.957  15.318  35.363  1.00 35.07    -0.235 N 
HETATM   70  NH2 0Q4 A 125       7.389  14.591  33.845  1.00 35.86    -0.235 N 
HETATM   71 HH11 0Q4 A 125       9.262  15.439  36.306  1.00 15.00     0.174 HD
HETATM   72 HH12 0Q4 A 125       9.497  15.705  34.613  1.00 15.00     0.174 HD
HETATM   73 HH21 0Q4 A 125       6.508  14.165  33.645  1.00 15.00     0.174 HD
HETATM   74 HH22 0Q4 A 125       7.938  14.982  33.103  1.00 15.00     0.174 HD
HETATM   75  HE  0Q4 A 125       6.328  13.633  35.878  1.00 15.00     0.177 HD
ENDBRANCH  66  67
ENDBRANCH  65  66
ENDBRANCH  64  65
ENDBRANCH  59  64
ENDBRANCH  56  59
ENDBRANCH  51  55
ENDBRANCH  48  51
ENDBRANCH  42  47
ENDBRANCH  40  42
ENDBRANCH   1  39
TORSDOF 29
                                                                                                                                                                               
ENDMDL
MODEL 3
REMARK VINA RESULT:    -8.535      2.350      4.891
REMARK INTER + INTRA:         -26.413
REMARK INTER:                 -22.556
REMARK INTRA:                  -3.857
REMARK UNBOUND:                -3.659
REMARK  29 active torsions:
REMARK  status: ('A' for Active; 'I' for Inactive)
REMARK    1  A    between atoms: N_1  and  CA_2 
REMARK    2  A    between atoms: CA_2  and  C_9 
REMARK    3  A    between atoms: CA_2  and  CB_11 
REMARK    4  A    between atoms: CA1_3  and  CB1_12 
REMARK    5  A    between atoms: CA1_3  and  C1_42 
REMARK    6  A    between atoms: CA1_3  and  N1_43 
REMARK    7  A    between atoms: CA2_4  and  CB2_13 
REMARK    8  A    between atoms: CA2_4  and  C2_45 
REMARK    9  A    between atoms: CA2_4  and  N2_46 
REMARK   10  A    between atoms: CA3_5  and  CB3_14 
REMARK   11  A    between atoms: CA3_5  and  C3_48 
REMARK   12  A    between atoms: CA3_5  and  N3_49 
REMARK   13  A    between atoms: CA4_6  and  CB4_15 
REMARK   14  A    between atoms: CA4_6  and  C4_51 
REMARK   15  A    between atoms: CA4_6  and  N4_52 
REMARK   16  A    between atoms: CA5_7  and  C5_54 
REMARK   17  A    between atoms: CA5_7  and  N5_55 
REMARK   18  A    between atoms: CA6_8  and  CB6_17 
REMARK   19  A    between atoms: CA6_8  and  C6_57 
REMARK   20  A    between atoms: CA6_8  and  N6_58 
REMARK       I    between atoms: C_9  and  N1_43 
REMARK   21  A    between atoms: CB_11  and  CG_18 
REMARK   22  A    between atoms: CB2_13  and  CG3_21 
REMARK   23  A    between atoms: CB3_14  and  CG4_22 
REMARK   24  A    between atoms: CB4_15  and  CG5_23 
REMARK   25  A    between atoms: CB6_17  and  CG6_24 
REMARK   26  A    between atoms: CG_18  and  CD_25 
REMARK   27  A    between atoms: CG5_23  and  CD3_30 
REMARK   28  A    between atoms: CG6_24  and  CD4_31 
REMARK   29  A    between atoms: CD_25  and  NE_35 
REMARK       I    between atoms: NE_35  and  CZ_38 
REMARK       I    between atoms: CZ_38  and  NH1_40 
REMARK       I    between atoms: C1_42  and  N2_46 
REMARK       I    between atoms: C3_48  and  N4_52 
REMARK       I    between atoms: C4_51  and  N5_55 
REMARK       I    between atoms: C5_54  and  N6_58 
REMARK       I    between atoms: C6_57  and  N7_59 
ROOT
HETATM    1  CA3 0Q4 A 125      -3.153  16.452  33.199  1.00 16.89     0.177 C 
ENDROOT
BRANCH   1   2
HETATM    2  CB3 0Q4 A 125      -3.709  17.504  34.205  1.00 18.22     0.073 C 
BRANCH   2   3
HETATM    3  CG4 0Q4 A 125      -4.704  16.990  35.170  1.00 21.59    -0.056 A 
HETATM    4  CD1 0Q4 A 125      -4.312  16.191  36.235  1.00 22.99     0.007 A 
HETATM    5  CE1 0Q4 A 125      -5.251  15.733  37.188  1.00 24.00     0.001 A 
HETATM    6  CZ1 0Q4 A 125      -6.602  16.075  37.065  1.00 25.64     0.000 A 
HETATM    7  CE2 0Q4 A 125      -7.010  16.868  35.994  1.00 27.27     0.001 A 
HETATM    8  CD2 0Q4 A 125      -6.048  17.325  35.044  1.00 24.65     0.007 A 
ENDBRANCH   2   3
ENDBRANCH   1   2
BRANCH   1   9
HETATM    9  C3  0Q4 A 125      -4.063  16.115  31.985  1.00 15.06     0.241 C 
HETATM   10  O2  0Q4 A 125      -3.953  15.030  31.409  1.00 12.51    -0.271 OA
HETATM   11  N4  0Q4 A 125      -5.018  16.997  31.688  1.00 14.54    -0.346 N 
HETATM   12  H4  0Q4 A 125      -5.063  17.851  32.170  1.00 15.00     0.163 HD
BRANCH  11  13
HETATM   13  CA4 0Q4 A 125      -6.000  16.782  30.622  1.00 15.81     0.177 C 
BRANCH  13  14
HETATM   14  CB4 0Q4 A 125      -5.263  16.704  29.255  1.00 17.07     0.045 C 
BRANCH  14  15
HETATM   15  CG5 0Q4 A 125      -5.711  17.660  28.167  1.00 18.50     0.116 C 
BRANCH  15  16
HETATM   16  CD3 0Q4 A 125      -6.590  18.805  28.693  1.00 26.68     0.172 C 
HETATM   17  OE1 0Q4 A 125      -6.037  19.838  29.114  1.00 29.71    -0.648 OA
HETATM   18  OE2 0Q4 A 125      -7.844  18.691  28.690  1.00 31.35    -0.648 OA
ENDBRANCH  15  16
ENDBRANCH  14  15
ENDBRANCH  13  14
BRANCH  13  19
HETATM   19  C4  0Q4 A 125      -6.905  15.557  30.789  1.00 17.52     0.241 C 
HETATM   20  O3  0Q4 A 125      -6.963  14.667  29.937  1.00 17.50    -0.271 OA
HETATM   21  N5  0Q4 A 125      -7.731  15.597  31.820  1.00 19.61    -0.346 N 
HETATM   22  H5  0Q4 A 125      -7.741  16.375  32.421  1.00 15.00     0.163 HD
BRANCH  21  23
HETATM   23  CA5 0Q4 A 125      -8.634  14.499  32.093  1.00 21.82     0.172 C 
HETATM   24  CB5 0Q4 A 125      -8.651  14.253  33.590  1.00 22.24     0.042 C 
BRANCH  23  25
HETATM   25  C5  0Q4 A 125     -10.089  14.649  31.583  1.00 24.09     0.240 C 
HETATM   26  O4  0Q4 A 125     -10.359  14.678  30.380  1.00 20.88    -0.271 OA
HETATM   27  N6  0Q4 A 125     -10.999  14.799  32.540  1.00 27.66    -0.346 N 
HETATM   28  H6  0Q4 A 125     -10.694  14.803  33.463  1.00 15.00     0.163 HD
BRANCH  27  29
HETATM   29  CA6 0Q4 A 125     -12.414  15.039  32.289  1.00 31.09     0.176 C 
BRANCH  29  30
HETATM   30  CB6 0Q4 A 125     -13.237  14.433  33.455  1.00 32.55     0.035 C 
BRANCH  30  31
HETATM   31  CG6 0Q4 A 125     -12.465  13.589  34.528  1.00 32.73     0.002 C 
BRANCH  31  32
HETATM   32  CD4 0Q4 A 125     -12.475  14.205  35.982  1.00 31.59    -0.004 C 
HETATM   33  CE  0Q4 A 125     -13.018  13.213  36.990  1.00 23.29     0.005 C 
ENDBRANCH  31  32
ENDBRANCH  30  31
ENDBRANCH  29  30
BRANCH  29  34
HETATM   34  C6  0Q4 A 125     -12.588  16.567  32.260  1.00 33.78     0.238 C 
HETATM   35  O5  0Q4 A 125     -13.292  17.114  31.361  1.00 34.60    -0.271 OA
HETATM   36  N7  0Q4 A 125     -11.974  17.214  33.144  1.00 36.53    -0.368 N 
ATOM     37  H72 0Q4 A 125     -11.407  16.774  33.869  1.00  0.00     0.159 HD
ATOM     38  H71 0Q4 A 125     -12.089  18.227  33.124  1.00  0.00     0.159 HD
ENDBRANCH  29  34
ENDBRANCH  27  29
ENDBRANCH  23  25
ENDBRANCH  21  23
ENDBRANCH  13  19
ENDBRANCH  11  13
ENDBRANCH   1   9
BRANCH   1  39
HETATM   39  N3  0Q4 A 125      -1.925  17.011  32.623  1.00 16.64    -0.387 N 
HETATM   40  C2  0Q4 A 125      -0.914  16.273  32.202  1.00 17.56     0.081 C 
HETATM   41  H3  0Q4 A 125      -1.857  17.980  32.528  1.00 15.00     0.159 HD
BRANCH  40  42
HETATM   42  CA2 0Q4 A 125       0.254  17.038  31.593  1.00 17.96     0.123 C 
BRANCH  42  43
HETATM   43  CB2 0Q4 A 125       0.067  17.276  30.075  1.00 19.32     0.034 C 
BRANCH  43  44
HETATM   44  CG3 0Q4 A 125      -1.382  17.079  29.547  1.00 21.12    -0.020 C 
HETATM   45  CD1 0Q4 A 125      -1.996  18.363  28.989  1.00 21.22     0.009 C 
HETATM   46  CD2 0Q4 A 125      -1.405  15.995  28.485  1.00 17.47     0.009 C 
ENDBRANCH  43  44
ENDBRANCH  42  43
BRANCH  42  47
HETATM   47  N2  0Q4 A 125       1.579  16.501  31.842  1.00 17.78    -0.350 N 
HETATM   48  C1  0Q4 A 125       2.522  17.244  32.395  1.00 17.14     0.241 C 
HETATM   49  O1  0Q4 A 125       2.267  18.348  32.858  1.00 18.87    -0.271 OA
HETATM   50  HN2 0Q4 A 125       1.784  15.583  31.557  1.00 15.00     0.163 HD
BRANCH  48  51
HETATM   51  CA1 0Q4 A 125       3.915  16.578  32.539  1.00 18.90     0.180 C 
BRANCH  51  52
HETATM   52  CB1 0Q4 A 125       4.364  15.705  31.258  1.00 19.28     0.009 C 
HETATM   53  CG1 0Q4 A 125       4.124  16.454  29.946  1.00 20.08     0.012 C 
HETATM   54  CG2 0Q4 A 125       5.865  15.359  31.333  1.00 19.54     0.012 C 
ENDBRANCH  51  52
BRANCH  51  55
HETATM   55  N1  0Q4 A 125       4.017  15.775  33.759  1.00 19.10    -0.346 N 
HETATM   56  C   0Q4 A 125       4.755  16.138  34.820  1.00 21.89     0.249 C 
HETATM   57  O   0Q4 A 125       5.428  17.186  34.847  1.00 22.48    -0.271 OA
HETATM   58  H1  0Q4 A 125       3.483  14.952  33.765  1.00 15.00     0.163 HD
BRANCH  56  59
HETATM   59  CA  0Q4 A 125       4.807  15.137  36.019  1.00 21.76     0.274 C 
BRANCH  59  60
HETATM   60  N   0Q4 A 125       6.077  14.352  35.941  1.00 21.27    -0.067 N 
HETATM   61  H   0Q4 A 125       6.121  13.635  36.679  1.00 15.00     0.275 HD
HETATM   62  H2  0Q4 A 125       6.078  13.909  34.988  1.00 15.00     0.275 HD
HETATM   63  HN3 0Q4 A 125       6.892  14.977  36.037  1.00 15.00     0.275 HD
ENDBRANCH  59  60
BRANCH  59  64
HETATM   64  CB  0Q4 A 125       4.732  15.834  37.383  1.00 21.80     0.044 C 
BRANCH  64  65
HETATM   65  CG  0Q4 A 125       3.305  16.223  37.903  1.00 26.69     0.023 C 
BRANCH  65  66
HETATM   66  CD  0Q4 A 125       2.694  17.542  37.315  1.00 29.76     0.138 C 
BRANCH  66  67
HETATM   67  NE  0Q4 A 125       1.226  17.591  37.305  1.00 32.26    -0.227 N 
HETATM   68  CZ  0Q4 A 125       0.454  17.083  36.341  1.00 34.72     0.665 C 
HETATM   69  NH1 0Q4 A 125       1.018  16.469  35.314  1.00 35.07    -0.235 N 
HETATM   70  NH2 0Q4 A 125      -0.870  17.293  36.338  1.00 35.86    -0.235 N 
HETATM   71 HH11 0Q4 A 125       2.012  16.383  35.264  1.00 15.00     0.174 HD
HETATM   72 HH12 0Q4 A 125       0.449  16.084  34.586  1.00 15.00     0.174 HD
HETATM   73 HH21 0Q4 A 125      -1.300  17.833  37.060  1.00 15.00     0.174 HD
HETATM   74 HH22 0Q4 A 125      -1.429  16.903  35.603  1.00 15.00     0.174 HD
HETATM   75  HE  0Q4 A 125       0.767  18.029  38.056  1.00 15.00     0.177 HD
ENDBRANCH  66  67
ENDBRANCH  65  66
ENDBRANCH  64  65
ENDBRANCH  59  64
ENDBRANCH  56  59
ENDBRANCH  51  55
ENDBRANCH  48  51
ENDBRANCH  42  47
ENDBRANCH  40  42
ENDBRANCH   1  39
TORSDOF 29
                                                                                                                                                                               
ENDMDL
MODEL 4
REMARK VINA RESULT:    -8.413      2.136     13.877
REMARK INTER + INTRA:         -26.088
REMARK INTER:                 -22.400
REMARK INTRA:                  -3.688
REMARK UNBOUND:                -3.659
REMARK  29 active torsions:
REMARK  status: ('A' for Active; 'I' for Inactive)
REMARK    1  A    between atoms: N_1  and  CA_2 
REMARK    2  A    between atoms: CA_2  and  C_9 
REMARK    3  A    between atoms: CA_2  and  CB_11 
REMARK    4  A    between atoms: CA1_3  and  CB1_12 
REMARK    5  A    between atoms: CA1_3  and  C1_42 
REMARK    6  A    between atoms: CA1_3  and  N1_43 
REMARK    7  A    between atoms: CA2_4  and  CB2_13 
REMARK    8  A    between atoms: CA2_4  and  C2_45 
REMARK    9  A    between atoms: CA2_4  and  N2_46 
REMARK   10  A    between atoms: CA3_5  and  CB3_14 
REMARK   11  A    between atoms: CA3_5  and  C3_48 
REMARK   12  A    between atoms: CA3_5  and  N3_49 
REMARK   13  A    between atoms: CA4_6  and  CB4_15 
REMARK   14  A    between atoms: CA4_6  and  C4_51 
REMARK   15  A    between atoms: CA4_6  and  N4_52 
REMARK   16  A    between atoms: CA5_7  and  C5_54 
REMARK   17  A    between atoms: CA5_7  and  N5_55 
REMARK   18  A    between atoms: CA6_8  and  CB6_17 
REMARK   19  A    between atoms: CA6_8  and  C6_57 
REMARK   20  A    between atoms: CA6_8  and  N6_58 
REMARK       I    between atoms: C_9  and  N1_43 
REMARK   21  A    between atoms: CB_11  and  CG_18 
REMARK   22  A    between atoms: CB2_13  and  CG3_21 
REMARK   23  A    between atoms: CB3_14  and  CG4_22 
REMARK   24  A    between atoms: CB4_15  and  CG5_23 
REMARK   25  A    between atoms: CB6_17  and  CG6_24 
REMARK   26  A    between atoms: CG_18  and  CD_25 
REMARK   27  A    between atoms: CG5_23  and  CD3_30 
REMARK   28  A    between atoms: CG6_24  and  CD4_31 
REMARK   29  A    between atoms: CD_25  and  NE_35 
REMARK       I    between atoms: NE_35  and  CZ_38 
REMARK       I    between atoms: CZ_38  and  NH1_40 
REMARK       I    between atoms: C1_42  and  N2_46 
REMARK       I    between atoms: C3_48  and  N4_52 
REMARK       I    between atoms: C4_51  and  N5_55 
REMARK       I    between atoms: C5_54  and  N6_58 
REMARK       I    between atoms: C6_57  and  N7_59 
ROOT
HETATM    1  CA3 0Q4 A 125       1.362  17.327  34.185  1.00 16.89     0.177 C 
ENDROOT
BRANCH   1   2
HETATM    2  CB3 0Q4 A 125       0.913  16.868  35.604  1.00 18.22     0.073 C 
BRANCH   2   3
HETATM    3  CG4 0Q4 A 125       1.991  16.782  36.611  1.00 21.59    -0.056 A 
HETATM    4  CD1 0Q4 A 125       2.455  17.922  37.252  1.00 22.99     0.007 A 
HETATM    5  CE1 0Q4 A 125       3.455  17.843  38.249  1.00 24.00     0.001 A 
HETATM    6  CZ1 0Q4 A 125       4.002  16.604  38.601  1.00 25.64     0.000 A 
HETATM    7  CE2 0Q4 A 125       3.552  15.453  37.957  1.00 27.27     0.001 A 
HETATM    8  CD2 0Q4 A 125       2.539  15.550  36.956  1.00 24.65     0.007 A 
ENDBRANCH   2   3
ENDBRANCH   1   2
BRANCH   1   9
HETATM    9  C3  0Q4 A 125       2.592  16.592  33.583  1.00 15.06     0.241 C 
HETATM   10  O2  0Q4 A 125       2.546  15.377  33.373  1.00 12.51    -0.271 OA
HETATM   11  N4  0Q4 A 125       3.622  17.351  33.209  1.00 14.54    -0.346 N 
HETATM   12  H4  0Q4 A 125       3.616  18.314  33.402  1.00 15.00     0.163 HD
BRANCH  11  13
HETATM   13  CA4 0Q4 A 125       4.817  16.811  32.555  1.00 15.81     0.177 C 
BRANCH  13  14
HETATM   14  CB4 0Q4 A 125       4.709  17.042  31.022  1.00 17.07     0.045 C 
BRANCH  14  15
HETATM   15  CG5 0Q4 A 125       3.832  16.088  30.234  1.00 18.50     0.116 C 
BRANCH  15  16
HETATM   16  CD3 0Q4 A 125       4.620  14.940  29.585  1.00 26.68     0.172 C 
HETATM   17  OE1 0Q4 A 125       5.339  14.225  30.309  1.00 29.71    -0.648 OA
HETATM   18  OE2 0Q4 A 125       4.531  14.733  28.346  1.00 31.35    -0.648 OA
ENDBRANCH  15  16
ENDBRANCH  14  15
ENDBRANCH  13  14
BRANCH  13  19
HETATM   19  C4  0Q4 A 125       6.156  17.355  33.064  1.00 17.52     0.241 C 
HETATM   20  O3  0Q4 A 125       7.199  17.231  32.418  1.00 17.50    -0.271 OA
HETATM   21  N5  0Q4 A 125       6.148  17.818  34.302  1.00 19.61    -0.346 N 
HETATM   22  H5  0Q4 A 125       5.322  17.800  34.835  1.00 15.00     0.163 HD
BRANCH  21  23
HETATM   23  CA5 0Q4 A 125       7.347  18.366  34.899  1.00 21.82     0.172 C 
HETATM   24  CB5 0Q4 A 125       6.959  19.574  35.731  1.00 22.24     0.042 C 
BRANCH  23  25
HETATM   25  C5  0Q4 A 125       8.199  17.403  35.763  1.00 24.09     0.240 C 
HETATM   26  O4  0Q4 A 125       9.429  17.475  35.799  1.00 20.88    -0.271 OA
HETATM   27  N6  0Q4 A 125       7.502  16.472  36.406  1.00 27.66    -0.346 N 
HETATM   28  H6  0Q4 A 125       6.536  16.463  36.291  1.00 15.00     0.163 HD
BRANCH  27  29
HETATM   29  CA6 0Q4 A 125       8.102  15.413  37.207  1.00 31.09     0.176 C 
BRANCH  29  30
HETATM   30  CB6 0Q4 A 125       7.088  14.975  38.295  1.00 32.55     0.035 C 
BRANCH  30  31
HETATM   31  CG6 0Q4 A 125       7.576  13.943  39.371  1.00 32.73     0.002 C 
BRANCH  31  32
HETATM   32  CD4 0Q4 A 125       6.837  12.547  39.327  1.00 31.59    -0.004 C 
HETATM   33  CE  0Q4 A 125       5.871  12.481  38.162  1.00 23.29     0.005 C 
ENDBRANCH  31  32
ENDBRANCH  30  31
ENDBRANCH  29  30
BRANCH  29  34
HETATM   34  C6  0Q4 A 125       8.371  14.248  36.240  1.00 33.78     0.238 C 
HETATM   35  O5  0Q4 A 125       7.603  14.042  35.255  1.00 34.60    -0.271 OA
HETATM   36  N7  0Q4 A 125       9.357  13.517  36.510  1.00 36.53    -0.368 N 
ATOM     37  H72 0Q4 A 125       9.976  13.682  37.303  1.00  0.00     0.159 HD
ATOM     38  H71 0Q4 A 125       9.535  12.744  35.869  1.00  0.00     0.159 HD
ENDBRANCH  29  34
ENDBRANCH  27  29
ENDBRANCH  23  25
ENDBRANCH  21  23
ENDBRANCH  13  19
ENDBRANCH  11  13
ENDBRANCH   1   9
BRANCH   1  39
HETATM   39  N3  0Q4 A 125       0.252  17.047  33.268  1.00 16.64    -0.387 N 
HETATM   40  C2  0Q4 A 125      -0.388  17.982  32.589  1.00 17.56     0.081 C 
HETATM   41  H3  0Q4 A 125      -0.018  16.118  33.136  1.00 15.00     0.159 HD
BRANCH  40  42
HETATM   42  CA2 0Q4 A 125      -1.483  17.487  31.653  1.00 17.96     0.123 C 
BRANCH  42  43
HETATM   43  CB2 0Q4 A 125      -1.428  18.182  30.271  1.00 19.32     0.034 C 
BRANCH  43  44
HETATM   44  CG3 0Q4 A 125      -2.042  17.371  29.096  1.00 21.12    -0.020 C 
HETATM   45  CD1 0Q4 A 125      -1.834  15.863  29.235  1.00 21.22     0.009 C 
HETATM   46  CD2 0Q4 A 125      -3.524  17.675  28.975  1.00 17.47     0.009 C 
ENDBRANCH  43  44
ENDBRANCH  42  43
BRANCH  42  47
HETATM   47  N2  0Q4 A 125      -2.840  17.529  32.165  1.00 17.78    -0.350 N 
HETATM   48  C1  0Q4 A 125      -3.203  16.784  33.195  1.00 17.14     0.241 C 
HETATM   49  O1  0Q4 A 125      -2.376  16.160  33.847  1.00 18.87    -0.271 OA
HETATM   50  HN2 0Q4 A 125      -3.505  18.092  31.711  1.00 15.00     0.163 HD
BRANCH  48  51
HETATM   51  CA1 0Q4 A 125      -4.698  16.863  33.599  1.00 18.90     0.180 C 
BRANCH  51  52
HETATM   52  CB1 0Q4 A 125      -5.001  16.357  35.102  1.00 19.28     0.009 C 
HETATM   53  CG1 0Q4 A 125      -6.045  17.234  35.798  1.00 20.08     0.012 C 
HETATM   54  CG2 0Q4 A 125      -5.536  14.910  35.092  1.00 19.54     0.012 C 
ENDBRANCH  51  52
BRANCH  51  55
HETATM   55  N1  0Q4 A 125      -5.562  16.164  32.647  1.00 19.10    -0.346 N 
HETATM   56  C   0Q4 A 125      -6.573  16.761  31.994  1.00 21.89     0.249 C 
HETATM   57  O   0Q4 A 125      -6.867  17.960  32.159  1.00 22.48    -0.271 OA
HETATM   58  H1  0Q4 A 125      -5.339  15.221  32.491  1.00 15.00     0.163 HD
BRANCH  56  59
HETATM   59  CA  0Q4 A 125      -7.440  15.857  31.059  1.00 21.76     0.274 C 
BRANCH  59  60
HETATM   60  N   0Q4 A 125      -6.704  14.582  30.799  1.00 21.27    -0.067 N 
HETATM   61  H   0Q4 A 125      -6.047  14.681  30.012  1.00 15.00     0.275 HD
HETATM   62  H2  0Q4 A 125      -6.191  14.364  31.690  1.00 15.00     0.275 HD
HETATM   63  HN3 0Q4 A 125      -7.368  13.822  30.582  1.00 15.00     0.275 HD
ENDBRANCH  59  60
BRANCH  59  64
HETATM   64  CB  0Q4 A 125      -8.815  15.529  31.653  1.00 21.80     0.044 C 
BRANCH  64  65
HETATM   65  CG  0Q4 A 125      -8.836  14.892  33.085  1.00 26.69     0.023 C 
BRANCH  65  66
HETATM   66  CD  0Q4 A 125      -9.964  13.835  33.352  1.00 29.76     0.138 C 
BRANCH  66  67
HETATM   67  NE  0Q4 A 125     -10.980  14.250  34.328  1.00 32.26    -0.227 N 
HETATM   68  CZ  0Q4 A 125     -12.138  13.617  34.536  1.00 34.72     0.665 C 
HETATM   69  NH1 0Q4 A 125     -12.415  12.525  33.844  1.00 35.07    -0.235 N 
HETATM   70  NH2 0Q4 A 125     -13.071  14.141  35.344  1.00 35.86    -0.235 N 
HETATM   71 HH11 0Q4 A 125     -11.761  12.175  33.175  1.00 15.00     0.174 HD
HETATM   72 HH12 0Q4 A 125     -13.280  12.043  33.992  1.00 15.00     0.174 HD
HETATM   73 HH21 0Q4 A 125     -12.913  15.013  35.804  1.00 15.00     0.174 HD
HETATM   74 HH22 0Q4 A 125     -13.933  13.650  35.484  1.00 15.00     0.174 HD
HETATM   75  HE  0Q4 A 125     -10.808  15.051  34.871  1.00 15.00     0.177 HD
ENDBRANCH  66  67
ENDBRANCH  65  66
ENDBRANCH  64  65
ENDBRANCH  59  64
ENDBRANCH  56  59
ENDBRANCH  51  55
ENDBRANCH  48  51
ENDBRANCH  42  47
ENDBRANCH  40  42
ENDBRANCH   1  39
TORSDOF 29
                                                                                                                                                                               
ENDMDL
MODEL 5
REMARK VINA RESULT:    -8.403      2.360      5.539
REMARK INTER + INTRA:         -26.061
REMARK INTER:                 -22.372
REMARK INTRA:                  -3.689
REMARK UNBOUND:                -3.659
REMARK  29 active torsions:
REMARK  status: ('A' for Active; 'I' for Inactive)
REMARK    1  A    between atoms: N_1  and  CA_2 
REMARK    2  A    between atoms: CA_2  and  C_9 
REMARK    3  A    between atoms: CA_2  and  CB_11 
REMARK    4  A    between atoms: CA1_3  and  CB1_12 
REMARK    5  A    between atoms: CA1_3  and  C1_42 
REMARK    6  A    between atoms: CA1_3  and  N1_43 
REMARK    7  A    between atoms: CA2_4  and  CB2_13 
REMARK    8  A    between atoms: CA2_4  and  C2_45 
REMARK    9  A    between atoms: CA2_4  and  N2_46 
REMARK   10  A    between atoms: CA3_5  and  CB3_14 
REMARK   11  A    between atoms: CA3_5  and  C3_48 
REMARK   12  A    between atoms: CA3_5  and  N3_49 
REMARK   13  A    between atoms: CA4_6  and  CB4_15 
REMARK   14  A    between atoms: CA4_6  and  C4_51 
REMARK   15  A    between atoms: CA4_6  and  N4_52 
REMARK   16  A    between atoms: CA5_7  and  C5_54 
REMARK   17  A    between atoms: CA5_7  and  N5_55 
REMARK   18  A    between atoms: CA6_8  and  CB6_17 
REMARK   19  A    between atoms: CA6_8  and  C6_57 
REMARK   20  A    between atoms: CA6_8  and  N6_58 
REMARK       I    between atoms: C_9  and  N1_43 
REMARK   21  A    between atoms: CB_11  and  CG_18 
REMARK   22  A    between atoms: CB2_13  and  CG3_21 
REMARK   23  A    between atoms: CB3_14  and  CG4_22 
REMARK   24  A    between atoms: CB4_15  and  CG5_23 
REMARK   25  A    between atoms: CB6_17  and  CG6_24 
REMARK   26  A    between atoms: CG_18  and  CD_25 
REMARK   27  A    between atoms: CG5_23  and  CD3_30 
REMARK   28  A    between atoms: CG6_24  and  CD4_31 
REMARK   29  A    between atoms: CD_25  and  NE_35 
REMARK       I    between atoms: NE_35  and  CZ_38 
REMARK       I    between atoms: CZ_38  and  NH1_40 
REMARK       I    between atoms: C1_42  and  N2_46 
REMARK       I    between atoms: C3_48  and  N4_52 
REMARK       I    between atoms: C4_51  and  N5_55 
REMARK       I    between atoms: C5_54  and  N6_58 
REMARK       I    between atoms: C6_57  and  N7_59 
ROOT
HETATM    1  CA3 0Q4 A 125      -4.475  16.126  32.945  1.00 16.89     0.177 C 
ENDROOT
BRANCH   1   2
HETATM    2  CB3 0Q4 A 125      -4.801  17.267  33.955  1.00 18.22     0.073 C 
BRANCH   2   3
HETATM    3  CG4 0Q4 A 125      -5.366  16.824  35.247  1.00 21.59    -0.056 A 
HETATM    4  CD1 0Q4 A 125      -4.569  16.186  36.187  1.00 22.99     0.007 A 
HETATM    5  CE1 0Q4 A 125      -5.090  15.799  37.443  1.00 24.00     0.001 A 
HETATM    6  CZ1 0Q4 A 125      -6.430  16.050  37.757  1.00 25.64     0.000 A 
HETATM    7  CE2 0Q4 A 125      -7.244  16.682  36.818  1.00 27.27     0.001 A 
HETATM    8  CD2 0Q4 A 125      -6.700  17.069  35.556  1.00 24.65     0.007 A 
ENDBRANCH   2   3
ENDBRANCH   1   2
BRANCH   1   9
HETATM    9  C3  0Q4 A 125      -5.246  16.161  31.596  1.00 15.06     0.241 C 
HETATM   10  O2  0Q4 A 125      -6.423  15.795  31.545  1.00 12.51    -0.271 OA
HETATM   11  N4  0Q4 A 125      -4.612  16.704  30.557  1.00 14.54    -0.346 N 
HETATM   12  H4  0Q4 A 125      -3.672  16.976  30.644  1.00 15.00     0.163 HD
BRANCH  11  13
HETATM   13  CA4 0Q4 A 125      -5.236  16.879  29.242  1.00 15.81     0.177 C 
BRANCH  13  14
HETATM   14  CB4 0Q4 A 125      -4.869  15.668  28.338  1.00 17.07     0.045 C 
BRANCH  14  15
HETATM   15  CG5 0Q4 A 125      -4.431  14.391  29.028  1.00 18.50     0.116 C 
BRANCH  15  16
HETATM   16  CD3 0Q4 A 125      -5.332  13.190  28.703  1.00 26.68     0.172 C 
HETATM   17  OE1 0Q4 A 125      -6.346  13.376  28.004  1.00 29.71    -0.648 OA
HETATM   18  OE2 0Q4 A 125      -5.040  12.045  29.138  1.00 31.35    -0.648 OA
ENDBRANCH  15  16
ENDBRANCH  14  15
ENDBRANCH  13  14
BRANCH  13  19
HETATM   19  C4  0Q4 A 125      -6.755  17.074  29.248  1.00 17.52     0.241 C 
HETATM   20  O3  0Q4 A 125      -7.278  18.118  29.645  1.00 17.50    -0.271 OA
HETATM   21  N5  0Q4 A 125      -7.467  15.999  28.954  1.00 19.61    -0.346 N 
HETATM   22  H5  0Q4 A 125      -7.022  15.147  28.751  1.00 15.00     0.163 HD
BRANCH  21  23
HETATM   23  CA5 0Q4 A 125      -8.913  16.052  28.919  1.00 21.82     0.172 C 
HETATM   24  CB5 0Q4 A 125      -9.387  15.359  27.656  1.00 22.24     0.042 C 
BRANCH  23  25
HETATM   25  C5  0Q4 A 125      -9.662  15.460  30.139  1.00 24.09     0.240 C 
HETATM   26  O4  0Q4 A 125     -10.521  14.585  30.014  1.00 20.88    -0.271 OA
HETATM   27  N6  0Q4 A 125      -9.344  16.011  31.305  1.00 27.66    -0.346 N 
HETATM   28  H6  0Q4 A 125      -8.683  16.724  31.308  1.00 15.00     0.163 HD
BRANCH  27  29
HETATM   29  CA6 0Q4 A 125      -9.983  15.669  32.570  1.00 31.09     0.176 C 
BRANCH  29  30
HETATM   30  CB6 0Q4 A 125     -11.505  15.500  32.330  1.00 32.55     0.035 C 
BRANCH  30  31
HETATM   31  CG6 0Q4 A 125     -12.469  16.526  33.023  1.00 32.73     0.002 C 
BRANCH  31  32
HETATM   32  CD4 0Q4 A 125     -13.386  15.910  34.152  1.00 31.59    -0.004 C 
HETATM   33  CE  0Q4 A 125     -12.754  14.667  34.745  1.00 23.29     0.005 C 
ENDBRANCH  31  32
ENDBRANCH  30  31
ENDBRANCH  29  30
BRANCH  29  34
HETATM   34  C6  0Q4 A 125      -9.368  14.329  33.009  1.00 33.78     0.238 C 
HETATM   35  O5  0Q4 A 125     -10.094  13.299  33.124  1.00 34.60    -0.271 OA
HETATM   36  N7  0Q4 A 125      -8.140  14.340  33.271  1.00 36.53    -0.368 N 
ATOM     37  H72 0Q4 A 125      -7.554  15.170  33.178  1.00  0.00     0.159 HD
ATOM     38  H71 0Q4 A 125      -7.732  13.452  33.562  1.00  0.00     0.159 HD
ENDBRANCH  29  34
ENDBRANCH  27  29
ENDBRANCH  23  25
ENDBRANCH  21  23
ENDBRANCH  13  19
ENDBRANCH  11  13
ENDBRANCH   1   9
BRANCH   1  39
HETATM   39  N3  0Q4 A 125      -3.058  16.257  32.588  1.00 16.64    -0.387 N 
HETATM   40  C2  0Q4 A 125      -2.145  16.767  33.396  1.00 17.56     0.081 C 
HETATM   41  H3  0Q4 A 125      -2.768  15.932  31.714  1.00 15.00     0.159 HD
BRANCH  40  42
HETATM   42  CA2 0Q4 A 125      -0.719  16.775  32.860  1.00 17.96     0.123 C 
BRANCH  42  43
HETATM   43  CB2 0Q4 A 125      -0.595  16.005  31.522  1.00 19.32     0.034 C 
BRANCH  43  44
HETATM   44  CG3 0Q4 A 125      -0.227  16.877  30.288  1.00 21.12    -0.020 C 
HETATM   45  CD1 0Q4 A 125      -1.070  18.147  30.180  1.00 21.22     0.009 C 
HETATM   46  CD2 0Q4 A 125       1.246  17.240  30.330  1.00 17.47     0.009 C 
ENDBRANCH  43  44
ENDBRANCH  42  43
BRANCH  42  47
HETATM   47  N2  0Q4 A 125       0.317  16.333  33.774  1.00 17.78    -0.350 N 
HETATM   48  C1  0Q4 A 125       1.364  17.095  34.037  1.00 17.14     0.241 C 
HETATM   49  O1  0Q4 A 125       1.416  18.255  33.647  1.00 18.87    -0.271 OA
HETATM   50  HN2 0Q4 A 125       0.253  15.436  34.171  1.00 15.00     0.163 HD
BRANCH  48  51
HETATM   51  CA1 0Q4 A 125       2.438  16.480  34.971  1.00 18.90     0.180 C 
BRANCH  51  52
HETATM   52  CB1 0Q4 A 125       2.064  16.552  36.540  1.00 19.28     0.009 C 
HETATM   53  CG1 0Q4 A 125       2.944  15.620  37.378  1.00 20.08     0.012 C 
HETATM   54  CG2 0Q4 A 125       2.253  17.984  37.080  1.00 19.54     0.012 C 
ENDBRANCH  51  52
BRANCH  51  55
HETATM   55  N1  0Q4 A 125       3.763  17.057  34.741  1.00 19.10    -0.346 N 
HETATM   56  C   0Q4 A 125       4.539  16.725  33.696  1.00 21.89     0.249 C 
HETATM   57  O   0Q4 A 125       4.197  15.884  32.843  1.00 22.48    -0.271 OA
HETATM   58  H1  0Q4 A 125       4.046  17.733  35.393  1.00 15.00     0.163 HD
BRANCH  56  59
HETATM   59  CA  0Q4 A 125       5.953  17.387  33.630  1.00 21.76     0.274 C 
BRANCH  59  60
HETATM   60  N   0Q4 A 125       6.276  17.975  34.966  1.00 21.27    -0.067 N 
HETATM   61  H   0Q4 A 125       7.292  17.997  35.131  1.00 15.00     0.275 HD
HETATM   62  H2  0Q4 A 125       5.879  18.949  34.950  1.00 15.00     0.275 HD
HETATM   63  HN3 0Q4 A 125       5.829  17.428  35.718  1.00 15.00     0.275 HD
ENDBRANCH  59  60
BRANCH  59  64
HETATM   64  CB  0Q4 A 125       7.058  16.397  33.239  1.00 21.80     0.044 C 
BRANCH  64  65
HETATM   65  CG  0Q4 A 125       7.969  16.795  32.028  1.00 26.69     0.023 C 
BRANCH  65  66
HETATM   66  CD  0Q4 A 125       7.583  16.170  30.641  1.00 29.76     0.138 C 
BRANCH  66  67
HETATM   67  NE  0Q4 A 125       6.615  16.951  29.860  1.00 32.26    -0.227 N 
HETATM   68  CZ  0Q4 A 125       5.362  16.569  29.600  1.00 34.72     0.665 C 
HETATM   69  NH1 0Q4 A 125       4.923  15.417  30.079  1.00 35.07    -0.235 N 
HETATM   70  NH2 0Q4 A 125       4.588  17.274  28.762  1.00 35.86    -0.235 N 
HETATM   71 HH11 0Q4 A 125       5.522  14.842  30.633  1.00 15.00     0.174 HD
HETATM   72 HH12 0Q4 A 125       3.985  15.121  29.891  1.00 15.00     0.174 HD
HETATM   73 HH21 0Q4 A 125       4.938  18.099  28.321  1.00 15.00     0.174 HD
HETATM   74 HH22 0Q4 A 125       3.652  16.967  28.581  1.00 15.00     0.174 HD
HETATM   75  HE  0Q4 A 125       6.899  17.819  29.495  1.00 15.00     0.177 HD
ENDBRANCH  66  67
ENDBRANCH  65  66
ENDBRANCH  64  65
ENDBRANCH  59  64
ENDBRANCH  56  59
ENDBRANCH  51  55
ENDBRANCH  48  51
ENDBRANCH  42  47
ENDBRANCH  40  42
ENDBRANCH   1  39
TORSDOF 29
                                                                                                                                                                               
ENDMDL
MODEL 6
REMARK VINA RESULT:    -8.379      3.177      6.227
REMARK INTER + INTRA:         -25.999
REMARK INTER:                 -19.547
REMARK INTRA:                  -6.453
REMARK UNBOUND:                -3.659
REMARK  29 active torsions:
REMARK  status: ('A' for Active; 'I' for Inactive)
REMARK    1  A    between atoms: N_1  and  CA_2 
REMARK    2  A    between atoms: CA_2  and  C_9 
REMARK    3  A    between atoms: CA_2  and  CB_11 
REMARK    4  A    between atoms: CA1_3  and  CB1_12 
REMARK    5  A    between atoms: CA1_3  and  C1_42 
REMARK    6  A    between atoms: CA1_3  and  N1_43 
REMARK    7  A    between atoms: CA2_4  and  CB2_13 
REMARK    8  A    between atoms: CA2_4  and  C2_45 
REMARK    9  A    between atoms: CA2_4  and  N2_46 
REMARK   10  A    between atoms: CA3_5  and  CB3_14 
REMARK   11  A    between atoms: CA3_5  and  C3_48 
REMARK   12  A    between atoms: CA3_5  and  N3_49 
REMARK   13  A    between atoms: CA4_6  and  CB4_15 
REMARK   14  A    between atoms: CA4_6  and  C4_51 
REMARK   15  A    between atoms: CA4_6  and  N4_52 
REMARK   16  A    between atoms: CA5_7  and  C5_54 
REMARK   17  A    between atoms: CA5_7  and  N5_55 
REMARK   18  A    between atoms: CA6_8  and  CB6_17 
REMARK   19  A    between atoms: CA6_8  and  C6_57 
REMARK   20  A    between atoms: CA6_8  and  N6_58 
REMARK       I    between atoms: C_9  and  N1_43 
REMARK   21  A    between atoms: CB_11  and  CG_18 
REMARK   22  A    between atoms: CB2_13  and  CG3_21 
REMARK   23  A    between atoms: CB3_14  and  CG4_22 
REMARK   24  A    between atoms: CB4_15  and  CG5_23 
REMARK   25  A    between atoms: CB6_17  and  CG6_24 
REMARK   26  A    between atoms: CG_18  and  CD_25 
REMARK   27  A    between atoms: CG5_23  and  CD3_30 
REMARK   28  A    between atoms: CG6_24  and  CD4_31 
REMARK   29  A    between atoms: CD_25  and  NE_35 
REMARK       I    between atoms: NE_35  and  CZ_38 
REMARK       I    between atoms: CZ_38  and  NH1_40 
REMARK       I    between atoms: C1_42  and  N2_46 
REMARK       I    between atoms: C3_48  and  N4_52 
REMARK       I    between atoms: C4_51  and  N5_55 
REMARK       I    between atoms: C5_54  and  N6_58 
REMARK       I    between atoms: C6_57  and  N7_59 
ROOT
HETATM    1  CA3 0Q4 A 125      -1.367  16.834  34.426  1.00 16.89     0.177 C 
ENDROOT
BRANCH   1   2
HETATM    2  CB3 0Q4 A 125      -2.519  17.569  35.173  1.00 18.22     0.073 C 
BRANCH   2   3
HETATM    3  CG4 0Q4 A 125      -3.831  16.890  35.134  1.00 21.59    -0.056 A 
HETATM    4  CD1 0Q4 A 125      -4.312  16.213  36.246  1.00 22.99     0.007 A 
HETATM    5  CE1 0Q4 A 125      -5.585  15.599  36.232  1.00 24.00     0.001 A 
HETATM    6  CZ1 0Q4 A 125      -6.384  15.658  35.085  1.00 25.64     0.000 A 
HETATM    7  CE2 0Q4 A 125      -5.908  16.327  33.958  1.00 27.27     0.001 A 
HETATM    8  CD2 0Q4 A 125      -4.622  16.945  33.991  1.00 24.65     0.007 A 
ENDBRANCH   2   3
ENDBRANCH   1   2
BRANCH   1   9
HETATM    9  C3  0Q4 A 125      -0.880  17.487  33.102  1.00 15.06     0.241 C 
HETATM   10  O2  0Q4 A 125      -0.436  18.638  33.105  1.00 12.51    -0.271 OA
HETATM   11  N4  0Q4 A 125      -0.864  16.709  32.019  1.00 14.54    -0.346 N 
HETATM   12  H4  0Q4 A 125      -1.234  15.801  32.064  1.00 15.00     0.163 HD
BRANCH  11  13
HETATM   13  CA4 0Q4 A 125      -0.359  17.159  30.719  1.00 15.81     0.177 C 
BRANCH  13  14
HETATM   14  CB4 0Q4 A 125       1.037  16.524  30.466  1.00 17.07     0.045 C 
BRANCH  14  15
HETATM   15  CG5 0Q4 A 125       2.253  17.316  30.909  1.00 18.50     0.116 C 
BRANCH  15  16
HETATM   16  CD3 0Q4 A 125       2.761  16.912  32.301  1.00 26.68     0.172 C 
HETATM   17  OE1 0Q4 A 125       3.046  15.717  32.510  1.00 29.71    -0.648 OA
HETATM   18  OE2 0Q4 A 125       2.888  17.780  33.204  1.00 31.35    -0.648 OA
ENDBRANCH  15  16
ENDBRANCH  14  15
ENDBRANCH  13  14
BRANCH  13  19
HETATM   19  C4  0Q4 A 125      -1.273  16.886  29.521  1.00 17.52     0.241 C 
HETATM   20  O3  0Q4 A 125      -1.090  17.420  28.425  1.00 17.50    -0.271 OA
HETATM   21  N5  0Q4 A 125      -2.354  16.171  29.782  1.00 19.61    -0.346 N 
HETATM   22  H5  0Q4 A 125      -2.532  15.852  30.694  1.00 15.00     0.163 HD
BRANCH  21  23
HETATM   23  CA5 0Q4 A 125      -3.296  15.837  28.735  1.00 21.82     0.172 C 
HETATM   24  CB5 0Q4 A 125      -3.916  14.491  29.058  1.00 22.24     0.042 C 
BRANCH  23  25
HETATM   25  C5  0Q4 A 125      -4.421  16.865  28.455  1.00 24.09     0.240 C 
HETATM   26  O4  0Q4 A 125      -4.190  17.960  27.938  1.00 20.88    -0.271 OA
HETATM   27  N6  0Q4 A 125      -5.628  16.491  28.867  1.00 27.66    -0.346 N 
HETATM   28  H6  0Q4 A 125      -5.714  15.625  29.302  1.00 15.00     0.163 HD
BRANCH  27  29
HETATM   29  CA6 0Q4 A 125      -6.815  17.332  28.783  1.00 31.09     0.176 C 
BRANCH  29  30
HETATM   30  CB6 0Q4 A 125      -8.066  16.457  29.051  1.00 32.55     0.035 C 
BRANCH  30  31
HETATM   31  CG6 0Q4 A 125      -7.834  14.998  29.581  1.00 32.73     0.002 C 
BRANCH  31  32
HETATM   32  CD4 0Q4 A 125      -7.930  14.844  31.150  1.00 31.59    -0.004 C 
HETATM   33  CE  0Q4 A 125      -9.290  15.279  31.656  1.00 23.29     0.005 C 
ENDBRANCH  31  32
ENDBRANCH  30  31
ENDBRANCH  29  30
BRANCH  29  34
HETATM   34  C6  0Q4 A 125      -6.666  18.391  29.889  1.00 33.78     0.238 C 
HETATM   35  O5  0Q4 A 125      -6.736  18.057  31.108  1.00 34.60    -0.271 OA
HETATM   36  N7  0Q4 A 125      -6.511  19.577  29.506  1.00 36.53    -0.368 N 
ATOM     37  H72 0Q4 A 125      -6.454  19.846  28.524  1.00  0.00     0.159 HD
ATOM     38  H71 0Q4 A 125      -6.413  20.279  30.240  1.00  0.00     0.159 HD
ENDBRANCH  29  34
ENDBRANCH  27  29
ENDBRANCH  23  25
ENDBRANCH  21  23
ENDBRANCH  13  19
ENDBRANCH  11  13
ENDBRANCH   1   9
BRANCH   1  39
HETATM   39  N3  0Q4 A 125      -0.201  16.841  35.316  1.00 16.64    -0.387 N 
HETATM   40  C2  0Q4 A 125       0.782  15.962  35.239  1.00 17.56     0.081 C 
HETATM   41  H3  0Q4 A 125      -0.136  17.544  35.991  1.00 15.00     0.159 HD
BRANCH  40  42
HETATM   42  CA2 0Q4 A 125       1.928  16.163  36.222  1.00 17.96     0.123 C 
BRANCH  42  43
HETATM   43  CB2 0Q4 A 125       1.889  17.562  36.884  1.00 19.32     0.034 C 
BRANCH  43  44
HETATM   44  CG3 0Q4 A 125       2.123  17.576  38.421  1.00 21.12    -0.020 C 
HETATM   45  CD1 0Q4 A 125       1.558  16.341  39.123  1.00 21.22     0.009 C 
HETATM   46  CD2 0Q4 A 125       3.605  17.704  38.719  1.00 17.47     0.009 C 
ENDBRANCH  43  44
ENDBRANCH  42  43
BRANCH  42  47
HETATM   47  N2  0Q4 A 125       3.263  15.897  35.723  1.00 17.78    -0.350 N 
HETATM   48  C1  0Q4 A 125       4.068  15.053  36.344  1.00 17.14     0.241 C 
HETATM   49  O1  0Q4 A 125       3.662  14.352  37.262  1.00 18.87    -0.271 OA
HETATM   50  HN2 0Q4 A 125       3.583  16.385  34.931  1.00 15.00     0.163 HD
BRANCH  48  51
HETATM   51  CA1 0Q4 A 125       5.495  14.912  35.753  1.00 18.90     0.180 C 
BRANCH  51  52
HETATM   52  CB1 0Q4 A 125       6.631  14.576  36.850  1.00 19.28     0.009 C 
HETATM   53  CG1 0Q4 A 125       7.712  13.652  36.284  1.00 20.08     0.012 C 
HETATM   54  CG2 0Q4 A 125       7.323  15.867  37.332  1.00 19.54     0.012 C 
ENDBRANCH  51  52
BRANCH  51  55
HETATM   55  N1  0Q4 A 125       5.883  16.085  34.968  1.00 19.10    -0.346 N 
HETATM   56  C   0Q4 A 125       6.481  16.003  33.768  1.00 21.89     0.249 C 
HETATM   57  O   0Q4 A 125       6.769  14.916  33.232  1.00 22.48    -0.271 OA
HETATM   58  H1  0Q4 A 125       5.653  16.952  35.365  1.00 15.00     0.163 HD
BRANCH  56  59
HETATM   59  CA  0Q4 A 125       6.887  17.350  33.089  1.00 21.76     0.274 C 
BRANCH  59  60
HETATM   60  N   0Q4 A 125       7.425  18.276  34.132  1.00 21.27    -0.067 N 
HETATM   61  H   0Q4 A 125       6.693  18.555  34.800  1.00 15.00     0.275 HD
HETATM   62  H2  0Q4 A 125       8.191  17.744  34.616  1.00 15.00     0.275 HD
HETATM   63  HN3 0Q4 A 125       7.813  19.126  33.693  1.00 15.00     0.275 HD
ENDBRANCH  59  60
BRANCH  59  64
HETATM   64  CB  0Q4 A 125       7.940  17.170  31.988  1.00 21.80     0.044 C 
BRANCH  64  65
HETATM   65  CG  0Q4 A 125       7.412  17.014  30.521  1.00 26.69     0.023 C 
BRANCH  65  66
HETATM   66  CD  0Q4 A 125       5.869  17.216  30.319  1.00 29.76     0.138 C 
BRANCH  66  67
HETATM   67  NE  0Q4 A 125       5.273  16.395  29.257  1.00 32.26    -0.227 N 
HETATM   68  CZ  0Q4 A 125       4.884  15.126  29.404  1.00 34.72     0.665 C 
HETATM   69  NH1 0Q4 A 125       5.015  14.539  30.582  1.00 35.07    -0.235 N 
HETATM   70  NH2 0Q4 A 125       4.480  14.404  28.348  1.00 35.86    -0.235 N 
HETATM   71 HH11 0Q4 A 125       5.398  15.043  31.355  1.00 15.00     0.174 HD
HETATM   72 HH12 0Q4 A 125       4.727  13.588  30.703  1.00 15.00     0.174 HD
HETATM   73 HH21 0Q4 A 125       4.462  14.808  27.435  1.00 15.00     0.174 HD
HETATM   74 HH22 0Q4 A 125       4.195  13.453  28.483  1.00 15.00     0.174 HD
HETATM   75  HE  0Q4 A 125       5.148  16.797  28.369  1.00 15.00     0.177 HD
ENDBRANCH  66  67
ENDBRANCH  65  66
ENDBRANCH  64  65
ENDBRANCH  59  64
ENDBRANCH  56  59
ENDBRANCH  51  55
ENDBRANCH  48  51
ENDBRANCH  42  47
ENDBRANCH  40  42
ENDBRANCH   1  39
TORSDOF 29
                                                                                                                                                                               
ENDMDL
MODEL 7
REMARK VINA RESULT:    -8.125      2.083     13.855
REMARK INTER + INTRA:         -25.321
REMARK INTER:                 -23.112
REMARK INTRA:                  -2.209
REMARK UNBOUND:                -3.659
REMARK  29 active torsions:
REMARK  status: ('A' for Active; 'I' for Inactive)
REMARK    1  A    between atoms: N_1  and  CA_2 
REMARK    2  A    between atoms: CA_2  and  C_9 
REMARK    3  A    between atoms: CA_2  and  CB_11 
REMARK    4  A    between atoms: CA1_3  and  CB1_12 
REMARK    5  A    between atoms: CA1_3  and  C1_42 
REMARK    6  A    between atoms: CA1_3  and  N1_43 
REMARK    7  A    between atoms: CA2_4  and  CB2_13 
REMARK    8  A    between atoms: CA2_4  and  C2_45 
REMARK    9  A    between atoms: CA2_4  and  N2_46 
REMARK   10  A    between atoms: CA3_5  and  CB3_14 
REMARK   11  A    between atoms: CA3_5  and  C3_48 
REMARK   12  A    between atoms: CA3_5  and  N3_49 
REMARK   13  A    between atoms: CA4_6  and  CB4_15 
REMARK   14  A    between atoms: CA4_6  and  C4_51 
REMARK   15  A    between atoms: CA4_6  and  N4_52 
REMARK   16  A    between atoms: CA5_7  and  C5_54 
REMARK   17  A    between atoms: CA5_7  and  N5_55 
REMARK   18  A    between atoms: CA6_8  and  CB6_17 
REMARK   19  A    between atoms: CA6_8  and  C6_57 
REMARK   20  A    between atoms: CA6_8  and  N6_58 
REMARK       I    between atoms: C_9  and  N1_43 
REMARK   21  A    between atoms: CB_11  and  CG_18 
REMARK   22  A    between atoms: CB2_13  and  CG3_21 
REMARK   23  A    between atoms: CB3_14  and  CG4_22 
REMARK   24  A    between atoms: CB4_15  and  CG5_23 
REMARK   25  A    between atoms: CB6_17  and  CG6_24 
REMARK   26  A    between atoms: CG_18  and  CD_25 
REMARK   27  A    between atoms: CG5_23  and  CD3_30 
REMARK   28  A    between atoms: CG6_24  and  CD4_31 
REMARK   29  A    between atoms: CD_25  and  NE_35 
REMARK       I    between atoms: NE_35  and  CZ_38 
REMARK       I    between atoms: CZ_38  and  NH1_40 
REMARK       I    between atoms: C1_42  and  N2_46 
REMARK       I    between atoms: C3_48  and  N4_52 
REMARK       I    between atoms: C4_51  and  N5_55 
REMARK       I    between atoms: C5_54  and  N6_58 
REMARK       I    between atoms: C6_57  and  N7_59 
ROOT
HETATM    1  CA3 0Q4 A 125       0.190  17.225  34.110  1.00 16.89     0.177 C 
ENDROOT
BRANCH   1   2
HETATM    2  CB3 0Q4 A 125       0.238  16.133  35.220  1.00 18.22     0.073 C 
BRANCH   2   3
HETATM    3  CG4 0Q4 A 125       1.034  16.482  36.415  1.00 21.59    -0.056 A 
HETATM    4  CD1 0Q4 A 125       1.912  17.557  36.392  1.00 22.99     0.007 A 
HETATM    5  CE1 0Q4 A 125       2.644  17.925  37.545  1.00 24.00     0.001 A 
HETATM    6  CZ1 0Q4 A 125       2.499  17.201  38.733  1.00 25.64     0.000 A 
HETATM    7  CE2 0Q4 A 125       1.628  16.113  38.766  1.00 27.27     0.001 A 
HETATM    8  CD2 0Q4 A 125       0.893  15.757  37.594  1.00 24.65     0.007 A 
ENDBRANCH   2   3
ENDBRANCH   1   2
BRANCH   1   9
HETATM    9  C3  0Q4 A 125       1.402  17.272  33.139  1.00 15.06     0.241 C 
HETATM   10  O2  0Q4 A 125       1.977  18.340  32.915  1.00 12.51    -0.271 OA
HETATM   11  N4  0Q4 A 125       1.841  16.103  32.670  1.00 14.54    -0.346 N 
HETATM   12  H4  0Q4 A 125       1.346  15.278  32.871  1.00 15.00     0.163 HD
BRANCH  11  13
HETATM   13  CA4 0Q4 A 125       3.020  15.979  31.809  1.00 15.81     0.177 C 
BRANCH  13  14
HETATM   14  CB4 0Q4 A 125       3.048  17.167  30.807  1.00 17.07     0.045 C 
BRANCH  14  15
HETATM   15  CG5 0Q4 A 125       3.260  16.838  29.342  1.00 18.50     0.116 C 
BRANCH  15  16
HETATM   16  CD3 0Q4 A 125       4.724  16.523  29.000  1.00 26.68     0.172 C 
HETATM   17  OE1 0Q4 A 125       5.565  17.437  29.076  1.00 29.71    -0.648 OA
HETATM   18  OE2 0Q4 A 125       5.054  15.358  28.653  1.00 31.35    -0.648 OA
ENDBRANCH  15  16
ENDBRANCH  14  15
ENDBRANCH  13  14
BRANCH  13  19
HETATM   19  C4  0Q4 A 125       4.366  15.886  32.535  1.00 17.52     0.241 C 
HETATM   20  O3  0Q4 A 125       4.482  16.154  33.733  1.00 17.50    -0.271 OA
HETATM   21  N5  0Q4 A 125       5.414  15.657  31.761  1.00 19.61    -0.346 N 
HETATM   22  H5  0Q4 A 125       5.304  15.560  30.789  1.00 15.00     0.163 HD
BRANCH  21  23
HETATM   23  CA5 0Q4 A 125       6.742  15.541  32.323  1.00 21.82     0.172 C 
HETATM   24  CB5 0Q4 A 125       7.737  15.433  31.184  1.00 22.24     0.042 C 
BRANCH  23  25
HETATM   25  C5  0Q4 A 125       7.191  16.665  33.290  1.00 24.09     0.240 C 
HETATM   26  O4  0Q4 A 125       7.324  17.832  32.915  1.00 20.88    -0.271 OA
HETATM   27  N6  0Q4 A 125       7.472  16.257  34.523  1.00 27.66    -0.346 N 
HETATM   28  H6  0Q4 A 125       7.377  15.310  34.723  1.00 15.00     0.163 HD
BRANCH  27  29
HETATM   29  CA6 0Q4 A 125       7.990  17.126  35.571  1.00 31.09     0.176 C 
BRANCH  29  30
HETATM   30  CB6 0Q4 A 125       7.272  16.785  36.903  1.00 32.55     0.035 C 
BRANCH  30  31
HETATM   31  CG6 0Q4 A 125       5.749  16.414  36.833  1.00 32.73     0.002 C 
BRANCH  31  32
HETATM   32  CD4 0Q4 A 125       5.376  15.037  37.509  1.00 31.59    -0.004 C 
HETATM   33  CE  0Q4 A 125       5.521  15.113  39.015  1.00 23.29     0.005 C 
ENDBRANCH  31  32
ENDBRANCH  30  31
ENDBRANCH  29  30
BRANCH  29  34
HETATM   34  C6  0Q4 A 125       9.490  16.807  35.686  1.00 33.78     0.238 C 
HETATM   35  O5  0Q4 A 125      10.339  17.743  35.773  1.00 34.60    -0.271 OA
HETATM   36  N7  0Q4 A 125       9.805  15.591  35.653  1.00 36.53    -0.368 N 
ATOM     37  H72 0Q4 A 125       9.121  14.838  35.583  1.00  0.00     0.159 HD
ATOM     38  H71 0Q4 A 125      10.799  15.380  35.729  1.00  0.00     0.159 HD
ENDBRANCH  29  34
ENDBRANCH  27  29
ENDBRANCH  23  25
ENDBRANCH  21  23
ENDBRANCH  13  19
ENDBRANCH  11  13
ENDBRANCH   1   9
BRANCH   1  39
HETATM   39  N3  0Q4 A 125      -0.975  16.934  33.266  1.00 16.64    -0.387 N 
HETATM   40  C2  0Q4 A 125      -1.595  15.767  33.255  1.00 17.56     0.081 C 
HETATM   41  H3  0Q4 A 125      -1.323  17.644  32.695  1.00 15.00     0.159 HD
BRANCH  40  42
HETATM   42  CA2 0Q4 A 125      -2.812  15.675  32.345  1.00 17.96     0.123 C 
BRANCH  42  43
HETATM   43  CB2 0Q4 A 125      -2.790  16.750  31.231  1.00 19.32     0.034 C 
BRANCH  43  44
HETATM   44  CG3 0Q4 A 125      -2.094  16.319  29.909  1.00 21.12    -0.020 C 
HETATM   45  CD1 0Q4 A 125      -2.727  15.083  29.273  1.00 21.22     0.009 C 
HETATM   46  CD2 0Q4 A 125      -2.105  17.469  28.918  1.00 17.47     0.009 C 
ENDBRANCH  43  44
ENDBRANCH  42  43
BRANCH  42  47
HETATM   47  N2  0Q4 A 125      -4.109  15.676  32.996  1.00 17.78    -0.350 N 
HETATM   48  C1  0Q4 A 125      -4.389  16.540  33.955  1.00 17.14     0.241 C 
HETATM   49  O1  0Q4 A 125      -3.630  17.466  34.214  1.00 18.87    -0.271 OA
HETATM   50  HN2 0Q4 A 125      -4.771  14.994  32.743  1.00 15.00     0.163 HD
BRANCH  48  51
HETATM   51  CA1 0Q4 A 125      -5.781  16.390  34.622  1.00 18.90     0.180 C 
BRANCH  51  52
HETATM   52  CB1 0Q4 A 125      -5.756  15.587  36.023  1.00 19.28     0.009 C 
HETATM   53  CG1 0Q4 A 125      -4.405  15.718  36.730  1.00 20.08     0.012 C 
HETATM   54  CG2 0Q4 A 125      -6.840  16.124  36.979  1.00 19.54     0.012 C 
ENDBRANCH  51  52
BRANCH  51  55
HETATM   55  N1  0Q4 A 125      -6.764  15.793  33.716  1.00 19.10    -0.346 N 
HETATM   56  C   0Q4 A 125      -7.340  16.467  32.708  1.00 21.89     0.249 C 
HETATM   57  O   0Q4 A 125      -7.094  17.665  32.471  1.00 22.48    -0.271 OA
HETATM   58  H1  0Q4 A 125      -6.961  14.845  33.876  1.00 15.00     0.163 HD
BRANCH  56  59
HETATM   59  CA  0Q4 A 125      -8.415  15.702  31.872  1.00 21.76     0.274 C 
BRANCH  59  60
HETATM   60  N   0Q4 A 125      -7.795  14.471  31.294  1.00 21.27    -0.067 N 
HETATM   61  H   0Q4 A 125      -8.391  14.058  30.563  1.00 15.00     0.275 HD
HETATM   62  H2  0Q4 A 125      -6.872  14.779  30.895  1.00 15.00     0.275 HD
HETATM   63  HN3 0Q4 A 125      -7.639  13.766  32.032  1.00 15.00     0.275 HD
ENDBRANCH  59  60
BRANCH  59  64
HETATM   64  CB  0Q4 A 125      -9.643  15.303  32.700  1.00 21.80     0.044 C 
BRANCH  64  65
HETATM   65  CG  0Q4 A 125      -9.784  13.787  33.071  1.00 26.69     0.023 C 
BRANCH  65  66
HETATM   66  CD  0Q4 A 125     -11.067  13.394  33.886  1.00 29.76     0.138 C 
BRANCH  66  67
HETATM   67  NE  0Q4 A 125     -11.583  14.447  34.770  1.00 32.26    -0.227 N 
HETATM   68  CZ  0Q4 A 125     -12.345  14.232  35.845  1.00 34.72     0.665 C 
HETATM   69  NH1 0Q4 A 125     -12.663  12.992  36.178  1.00 35.07    -0.235 N 
HETATM   70  NH2 0Q4 A 125     -12.891  15.257  36.517  1.00 35.86    -0.235 N 
HETATM   71 HH11 0Q4 A 125     -12.332  12.225  35.631  1.00 15.00     0.174 HD
HETATM   72 HH12 0Q4 A 125     -13.234  12.820  36.983  1.00 15.00     0.174 HD
HETATM   73 HH21 0Q4 A 125     -12.733  16.198  36.222  1.00 15.00     0.174 HD
HETATM   74 HH22 0Q4 A 125     -13.461  15.071  37.320  1.00 15.00     0.174 HD
HETATM   75  HE  0Q4 A 125     -11.360  15.382  34.563  1.00 15.00     0.177 HD
ENDBRANCH  66  67
ENDBRANCH  65  66
ENDBRANCH  64  65
ENDBRANCH  59  64
ENDBRANCH  56  59
ENDBRANCH  51  55
ENDBRANCH  48  51
ENDBRANCH  42  47
ENDBRANCH  40  42
ENDBRANCH   1  39
TORSDOF 29
                                                                                                                                                                               
ENDMDL
MODEL 8
REMARK VINA RESULT:    -7.996      2.248      5.311
REMARK INTER + INTRA:         -24.976
REMARK INTER:                 -21.679
REMARK INTRA:                  -3.296
REMARK UNBOUND:                -3.659
REMARK  29 active torsions:
REMARK  status: ('A' for Active; 'I' for Inactive)
REMARK    1  A    between atoms: N_1  and  CA_2 
REMARK    2  A    between atoms: CA_2  and  C_9 
REMARK    3  A    between atoms: CA_2  and  CB_11 
REMARK    4  A    between atoms: CA1_3  and  CB1_12 
REMARK    5  A    between atoms: CA1_3  and  C1_42 
REMARK    6  A    between atoms: CA1_3  and  N1_43 
REMARK    7  A    between atoms: CA2_4  and  CB2_13 
REMARK    8  A    between atoms: CA2_4  and  C2_45 
REMARK    9  A    between atoms: CA2_4  and  N2_46 
REMARK   10  A    between atoms: CA3_5  and  CB3_14 
REMARK   11  A    between atoms: CA3_5  and  C3_48 
REMARK   12  A    between atoms: CA3_5  and  N3_49 
REMARK   13  A    between atoms: CA4_6  and  CB4_15 
REMARK   14  A    between atoms: CA4_6  and  C4_51 
REMARK   15  A    between atoms: CA4_6  and  N4_52 
REMARK   16  A    between atoms: CA5_7  and  C5_54 
REMARK   17  A    between atoms: CA5_7  and  N5_55 
REMARK   18  A    between atoms: CA6_8  and  CB6_17 
REMARK   19  A    between atoms: CA6_8  and  C6_57 
REMARK   20  A    between atoms: CA6_8  and  N6_58 
REMARK       I    between atoms: C_9  and  N1_43 
REMARK   21  A    between atoms: CB_11  and  CG_18 
REMARK   22  A    between atoms: CB2_13  and  CG3_21 
REMARK   23  A    between atoms: CB3_14  and  CG4_22 
REMARK   24  A    between atoms: CB4_15  and  CG5_23 
REMARK   25  A    between atoms: CB6_17  and  CG6_24 
REMARK   26  A    between atoms: CG_18  and  CD_25 
REMARK   27  A    between atoms: CG5_23  and  CD3_30 
REMARK   28  A    between atoms: CG6_24  and  CD4_31 
REMARK   29  A    between atoms: CD_25  and  NE_35 
REMARK       I    between atoms: NE_35  and  CZ_38 
REMARK       I    between atoms: CZ_38  and  NH1_40 
REMARK       I    between atoms: C1_42  and  N2_46 
REMARK       I    between atoms: C3_48  and  N4_52 
REMARK       I    between atoms: C4_51  and  N5_55 
REMARK       I    between atoms: C5_54  and  N6_58 
REMARK       I    between atoms: C6_57  and  N7_59 
ROOT
HETATM    1  CA3 0Q4 A 125      -4.192  16.388  33.113  1.00 16.89     0.177 C 
ENDROOT
BRANCH   1   2
HETATM    2  CB3 0Q4 A 125      -3.998  17.206  34.425  1.00 18.22     0.073 C 
BRANCH   2   3
HETATM    3  CG4 0Q4 A 125      -4.852  16.793  35.558  1.00 21.59    -0.056 A 
HETATM    4  CD1 0Q4 A 125      -4.356  15.961  36.553  1.00 22.99     0.007 A 
HETATM    5  CE1 0Q4 A 125      -5.152  15.598  37.663  1.00 24.00     0.001 A 
HETATM    6  CZ1 0Q4 A 125      -6.465  16.068  37.773  1.00 25.64     0.000 A 
HETATM    7  CE2 0Q4 A 125      -6.978  16.895  36.776  1.00 27.27     0.001 A 
HETATM    8  CD2 0Q4 A 125      -6.160  17.256  35.663  1.00 24.65     0.007 A 
ENDBRANCH   2   3
ENDBRANCH   1   2
BRANCH   1   9
HETATM    9  C3  0Q4 A 125      -5.497  16.667  32.316  1.00 15.06     0.241 C 
HETATM   10  O2  0Q4 A 125      -6.127  17.711  32.502  1.00 12.51    -0.271 OA
HETATM   11  N4  0Q4 A 125      -5.818  15.788  31.365  1.00 14.54    -0.346 N 
HETATM   12  H4  0Q4 A 125      -5.289  14.968  31.258  1.00 15.00     0.163 HD
BRANCH  11  13
HETATM   13  CA4 0Q4 A 125      -6.974  15.956  30.480  1.00 15.81     0.177 C 
BRANCH  13  14
HETATM   14  CB4 0Q4 A 125      -6.526  15.738  29.008  1.00 17.07     0.045 C 
BRANCH  14  15
HETATM   15  CG5 0Q4 A 125      -6.426  14.308  28.515  1.00 18.50     0.116 C 
BRANCH  15  16
HETATM   16  CD3 0Q4 A 125      -5.171  13.581  29.022  1.00 26.68     0.172 C 
HETATM   17  OE1 0Q4 A 125      -5.164  12.336  29.029  1.00 29.71    -0.648 OA
HETATM   18  OE2 0Q4 A 125      -4.175  14.242  29.417  1.00 31.35    -0.648 OA
ENDBRANCH  15  16
ENDBRANCH  14  15
ENDBRANCH  13  14
BRANCH  13  19
HETATM   19  C4  0Q4 A 125      -8.181  15.064  30.788  1.00 17.52     0.241 C 
HETATM   20  O3  0Q4 A 125      -8.681  14.326  29.936  1.00 17.50    -0.271 OA
HETATM   21  N5  0Q4 A 125      -8.745  15.258  31.968  1.00 19.61    -0.346 N 
HETATM   22  H5  0Q4 A 125      -8.390  15.937  32.584  1.00 15.00     0.163 HD
BRANCH  21  23
HETATM   23  CA5 0Q4 A 125      -9.889  14.475  32.383  1.00 21.82     0.172 C 
HETATM   24  CB5 0Q4 A 125      -9.796  14.246  33.880  1.00 22.24     0.042 C 
BRANCH  23  25
HETATM   25  C5  0Q4 A 125     -11.287  15.048  32.040  1.00 24.09     0.240 C 
HETATM   26  O4  0Q4 A 125     -11.710  15.085  30.883  1.00 20.88    -0.271 OA
HETATM   27  N6  0Q4 A 125     -11.955  15.539  33.078  1.00 27.66    -0.346 N 
HETATM   28  H6  0Q4 A 125     -11.530  15.504  33.952  1.00 15.00     0.163 HD
BRANCH  27  29
HETATM   29  CA6 0Q4 A 125     -13.249  16.200  32.976  1.00 31.09     0.176 C 
BRANCH  29  30
HETATM   30  CB6 0Q4 A 125     -13.955  16.132  34.355  1.00 32.55     0.035 C 
BRANCH  30  31
HETATM   31  CG6 0Q4 A 125     -13.778  14.821  35.199  1.00 32.73     0.002 C 
BRANCH  31  32
HETATM   32  CD4 0Q4 A 125     -13.035  15.020  36.578  1.00 31.59    -0.004 C 
HETATM   33  CE  0Q4 A 125     -13.633  14.133  37.651  1.00 23.29     0.005 C 
ENDBRANCH  31  32
ENDBRANCH  30  31
ENDBRANCH  29  30
BRANCH  29  34
HETATM   34  C6  0Q4 A 125     -12.953  17.664  32.609  1.00 33.78     0.238 C 
HETATM   35  O5  0Q4 A 125     -12.741  18.521  33.516  1.00 34.60    -0.271 OA
HETATM   36  N7  0Q4 A 125     -12.970  17.945  31.385  1.00 36.53    -0.368 N 
ATOM     37  H72 0Q4 A 125     -13.140  17.255  30.653  1.00  0.00     0.159 HD
ATOM     38  H71 0Q4 A 125     -12.773  18.915  31.141  1.00  0.00     0.159 HD
ENDBRANCH  29  34
ENDBRANCH  27  29
ENDBRANCH  23  25
ENDBRANCH  21  23
ENDBRANCH  13  19
ENDBRANCH  11  13
ENDBRANCH   1   9
BRANCH   1  39
HETATM   39  N3  0Q4 A 125      -3.096  16.756  32.209  1.00 16.64    -0.387 N 
HETATM   40  C2  0Q4 A 125      -1.839  16.403  32.403  1.00 17.56     0.081 C 
HETATM   41  H3  0Q4 A 125      -3.309  17.275  31.409  1.00 15.00     0.159 HD
BRANCH  40  42
HETATM   42  CA2 0Q4 A 125      -0.854  16.843  31.327  1.00 17.96     0.123 C 
BRANCH  42  43
HETATM   43  CB2 0Q4 A 125      -1.295  16.392  29.914  1.00 19.32     0.034 C 
BRANCH  43  44
HETATM   44  CG3 0Q4 A 125      -1.782  17.532  28.975  1.00 21.12    -0.020 C 
HETATM   45  CD1 0Q4 A 125      -3.286  17.486  28.708  1.00 21.22     0.009 C 
HETATM   46  CD2 0Q4 A 125      -1.405  18.881  29.559  1.00 17.47     0.009 C 
ENDBRANCH  43  44
ENDBRANCH  42  43
BRANCH  42  47
HETATM   47  N2  0Q4 A 125       0.537  16.491  31.540  1.00 17.78    -0.350 N 
HETATM   48  C1  0Q4 A 125       1.386  17.355  32.065  1.00 17.14     0.241 C 
HETATM   49  O1  0Q4 A 125       0.999  18.418  32.535  1.00 18.87    -0.271 OA
HETATM   50  HN2 0Q4 A 125       0.855  15.607  31.250  1.00 15.00     0.163 HD
BRANCH  48  51
HETATM   51  CA1 0Q4 A 125       2.860  16.883  32.172  1.00 18.90     0.180 C 
BRANCH  51  52
HETATM   52  CB1 0Q4 A 125       3.361  16.001  30.916  1.00 19.28     0.009 C 
HETATM   53  CG1 0Q4 A 125       3.518  16.849  29.651  1.00 20.08     0.012 C 
HETATM   54  CG2 0Q4 A 125       4.727  15.351  31.217  1.00 19.54     0.012 C 
ENDBRANCH  51  52
BRANCH  51  55
HETATM   55  N1  0Q4 A 125       3.120  16.172  33.424  1.00 19.10    -0.346 N 
HETATM   56  C   0Q4 A 125       4.141  16.472  34.243  1.00 21.89     0.249 C 
HETATM   57  O   0Q4 A 125       4.962  17.376  33.994  1.00 22.48    -0.271 OA
HETATM   58  H1  0Q4 A 125       2.477  15.465  33.647  1.00 15.00     0.163 HD
BRANCH  56  59
HETATM   59  CA  0Q4 A 125       4.317  15.575  35.510  1.00 21.76     0.274 C 
BRANCH  59  60
HETATM   60  N   0Q4 A 125       5.711  15.036  35.533  1.00 21.27    -0.067 N 
HETATM   61  H   0Q4 A 125       6.339  15.643  36.079  1.00 15.00     0.275 HD
HETATM   62  H2  0Q4 A 125       5.639  14.083  35.970  1.00 15.00     0.275 HD
HETATM   63  HN3 0Q4 A 125       6.082  14.955  34.573  1.00 15.00     0.275 HD
ENDBRANCH  59  60
BRANCH  59  64
HETATM   64  CB  0Q4 A 125       4.050  16.330  36.818  1.00 21.80     0.044 C 
BRANCH  64  65
HETATM   65  CG  0Q4 A 125       2.874  15.804  37.712  1.00 26.69     0.023 C 
BRANCH  65  66
HETATM   66  CD  0Q4 A 125       1.669  15.149  36.949  1.00 29.76     0.138 C 
BRANCH  66  67
HETATM   67  NE  0Q4 A 125       0.389  15.855  37.095  1.00 32.26    -0.227 N 
HETATM   68  CZ  0Q4 A 125      -0.002  16.885  36.340  1.00 34.72     0.665 C 
HETATM   69  NH1 0Q4 A 125       0.789  17.317  35.372  1.00 35.07    -0.235 N 
HETATM   70  NH2 0Q4 A 125      -1.123  17.563  36.630  1.00 35.86    -0.235 N 
HETATM   71 HH11 0Q4 A 125       1.667  16.873  35.205  1.00 15.00     0.174 HD
HETATM   72 HH12 0Q4 A 125       0.505  18.089  34.800  1.00 15.00     0.174 HD
HETATM   73 HH21 0Q4 A 125      -1.683  17.304  37.414  1.00 15.00     0.174 HD
HETATM   74 HH22 0Q4 A 125      -1.395  18.334  36.050  1.00 15.00     0.174 HD
HETATM   75  HE  0Q4 A 125      -0.232  15.557  37.796  1.00 15.00     0.177 HD
ENDBRANCH  66  67
ENDBRANCH  65  66
ENDBRANCH  64  65
ENDBRANCH  59  64
ENDBRANCH  56  59
ENDBRANCH  51  55
ENDBRANCH  48  51
ENDBRANCH  42  47
ENDBRANCH  40  42
ENDBRANCH   1  39
TORSDOF 29
                                                                                                                                                                               
ENDMDL
MODEL 9
REMARK VINA RESULT:    -7.942      2.348      5.158
REMARK INTER + INTRA:         -24.833
REMARK INTER:                 -21.941
REMARK INTRA:                  -2.893
REMARK UNBOUND:                -3.659
REMARK  29 active torsions:
REMARK  status: ('A' for Active; 'I' for Inactive)
REMARK    1  A    between atoms: N_1  and  CA_2 
REMARK    2  A    between atoms: CA_2  and  C_9 
REMARK    3  A    between atoms: CA_2  and  CB_11 
REMARK    4  A    between atoms: CA1_3  and  CB1_12 
REMARK    5  A    between atoms: CA1_3  and  C1_42 
REMARK    6  A    between atoms: CA1_3  and  N1_43 
REMARK    7  A    between atoms: CA2_4  and  CB2_13 
REMARK    8  A    between atoms: CA2_4  and  C2_45 
REMARK    9  A    between atoms: CA2_4  and  N2_46 
REMARK   10  A    between atoms: CA3_5  and  CB3_14 
REMARK   11  A    between atoms: CA3_5  and  C3_48 
REMARK   12  A    between atoms: CA3_5  and  N3_49 
REMARK   13  A    between atoms: CA4_6  and  CB4_15 
REMARK   14  A    between atoms: CA4_6  and  C4_51 
REMARK   15  A    between atoms: CA4_6  and  N4_52 
REMARK   16  A    between atoms: CA5_7  and  C5_54 
REMARK   17  A    between atoms: CA5_7  and  N5_55 
REMARK   18  A    between atoms: CA6_8  and  CB6_17 
REMARK   19  A    between atoms: CA6_8  and  C6_57 
REMARK   20  A    between atoms: CA6_8  and  N6_58 
REMARK       I    between atoms: C_9  and  N1_43 
REMARK   21  A    between atoms: CB_11  and  CG_18 
REMARK   22  A    between atoms: CB2_13  and  CG3_21 
REMARK   23  A    between atoms: CB3_14  and  CG4_22 
REMARK   24  A    between atoms: CB4_15  and  CG5_23 
REMARK   25  A    between atoms: CB6_17  and  CG6_24 
REMARK   26  A    between atoms: CG_18  and  CD_25 
REMARK   27  A    between atoms: CG5_23  and  CD3_30 
REMARK   28  A    between atoms: CG6_24  and  CD4_31 
REMARK   29  A    between atoms: CD_25  and  NE_35 
REMARK       I    between atoms: NE_35  and  CZ_38 
REMARK       I    between atoms: CZ_38  and  NH1_40 
REMARK       I    between atoms: C1_42  and  N2_46 
REMARK       I    between atoms: C3_48  and  N4_52 
REMARK       I    between atoms: C4_51  and  N5_55 
REMARK       I    between atoms: C5_54  and  N6_58 
REMARK       I    between atoms: C6_57  and  N7_59 
ROOT
HETATM    1  CA3 0Q4 A 125      -2.503  16.590  32.812  1.00 16.89     0.177 C 
ENDROOT
BRANCH   1   2
HETATM    2  CB3 0Q4 A 125      -3.012  17.540  33.937  1.00 18.22     0.073 C 
BRANCH   2   3
HETATM    3  CG4 0Q4 A 125      -4.160  17.034  34.719  1.00 21.59    -0.056 A 
HETATM    4  CD1 0Q4 A 125      -5.462  17.267  34.297  1.00 22.99     0.007 A 
HETATM    5  CE1 0Q4 A 125      -6.565  16.748  35.015  1.00 24.00     0.001 A 
HETATM    6  CZ1 0Q4 A 125      -6.358  15.993  36.174  1.00 25.64     0.000 A 
HETATM    7  CE2 0Q4 A 125      -5.055  15.761  36.614  1.00 27.27     0.001 A 
HETATM    8  CD2 0Q4 A 125      -3.954  16.289  35.875  1.00 24.65     0.007 A 
ENDBRANCH   2   3
ENDBRANCH   1   2
BRANCH   1   9
HETATM    9  C3  0Q4 A 125      -2.892  16.976  31.358  1.00 15.06     0.241 C 
HETATM   10  O2  0Q4 A 125      -2.056  17.483  30.606  1.00 12.51    -0.271 OA
HETATM   11  N4  0Q4 A 125      -4.113  16.628  30.951  1.00 14.54    -0.346 N 
HETATM   12  H4  0Q4 A 125      -4.747  16.232  31.587  1.00 15.00     0.163 HD
BRANCH  11  13
HETATM   13  CA4 0Q4 A 125      -4.595  16.854  29.585  1.00 15.81     0.177 C 
BRANCH  13  14
HETATM   14  CB4 0Q4 A 125      -4.302  15.593  28.725  1.00 17.07     0.045 C 
BRANCH  14  15
HETATM   15  CG5 0Q4 A 125      -4.246  14.258  29.442  1.00 18.50     0.116 C 
BRANCH  15  16
HETATM   16  CD3 0Q4 A 125      -5.233  13.227  28.875  1.00 26.68     0.172 C 
HETATM   17  OE1 0Q4 A 125      -6.206  13.633  28.213  1.00 29.71    -0.648 OA
HETATM   18  OE2 0Q4 A 125      -5.049  11.997  29.079  1.00 31.35    -0.648 OA
ENDBRANCH  15  16
ENDBRANCH  14  15
ENDBRANCH  13  14
BRANCH  13  19
HETATM   19  C4  0Q4 A 125      -6.074  17.232  29.456  1.00 17.52     0.241 C 
HETATM   20  O3  0Q4 A 125      -6.450  18.406  29.454  1.00 17.50    -0.271 OA
HETATM   21  N5  0Q4 A 125      -6.925  16.221  29.510  1.00 19.61    -0.346 N 
HETATM   22  H5  0Q4 A 125      -6.599  15.301  29.627  1.00 15.00     0.163 HD
BRANCH  21  23
HETATM   23  CA5 0Q4 A 125      -8.350  16.443  29.393  1.00 21.82     0.172 C 
HETATM   24  CB5 0Q4 A 125      -8.775  16.100  27.978  1.00 22.24     0.042 C 
BRANCH  23  25
HETATM   25  C5  0Q4 A 125      -9.258  15.688  30.396  1.00 24.09     0.240 C 
HETATM   26  O4  0Q4 A 125     -10.054  14.820  30.030  1.00 20.88    -0.271 OA
HETATM   27  N6  0Q4 A 125      -9.146  16.092  31.657  1.00 27.66    -0.346 N 
HETATM   28  H6  0Q4 A 125      -8.521  16.810  31.853  1.00 15.00     0.163 HD
BRANCH  27  29
HETATM   29  CA6 0Q4 A 125      -9.961  15.581  32.752  1.00 31.09     0.176 C 
BRANCH  29  30
HETATM   30  CB6 0Q4 A 125     -11.426  15.445  32.262  1.00 32.55     0.035 C 
BRANCH  30  31
HETATM   31  CG6 0Q4 A 125     -12.514  16.330  32.966  1.00 32.73     0.002 C 
BRANCH  31  32
HETATM   32  CD4 0Q4 A 125     -13.749  15.528  33.535  1.00 31.59    -0.004 C 
HETATM   33  CE  0Q4 A 125     -13.525  14.034  33.421  1.00 23.29     0.005 C 
ENDBRANCH  31  32
ENDBRANCH  30  31
ENDBRANCH  29  30
BRANCH  29  34
HETATM   34  C6  0Q4 A 125      -9.391  14.195  33.097  1.00 33.78     0.238 C 
HETATM   35  O5  0Q4 A 125     -10.147  13.180  33.122  1.00 34.60    -0.271 OA
HETATM   36  N7  0Q4 A 125      -8.167  14.151  33.377  1.00 36.53    -0.368 N 
ATOM     37  H72 0Q4 A 125      -7.557  14.968  33.356  1.00  0.00     0.159 HD
ATOM     38  H71 0Q4 A 125      -7.789  13.231  33.606  1.00  0.00     0.159 HD
ENDBRANCH  29  34
ENDBRANCH  27  29
ENDBRANCH  23  25
ENDBRANCH  21  23
ENDBRANCH  13  19
ENDBRANCH  11  13
ENDBRANCH   1   9
BRANCH   1  39
HETATM   39  N3  0Q4 A 125      -1.036  16.626  32.847  1.00 16.64    -0.387 N 
HETATM   40  C2  0Q4 A 125      -0.344  17.499  33.556  1.00 17.56     0.081 C 
HETATM   41  H3  0Q4 A 125      -0.543  15.959  32.333  1.00 15.00     0.159 HD
BRANCH  40  42
HETATM   42  CA2 0Q4 A 125       1.170  17.346  33.497  1.00 17.96     0.123 C 
BRANCH  42  43
HETATM   43  CB2 0Q4 A 125       1.623  16.495  32.287  1.00 19.32     0.034 C 
BRANCH  43  44
HETATM   44  CG3 0Q4 A 125       3.032  16.838  31.725  1.00 21.12    -0.020 C 
HETATM   45  CD1 0Q4 A 125       4.119  15.877  32.205  1.00 21.22     0.009 C 
HETATM   46  CD2 0Q4 A 125       2.995  16.856  30.208  1.00 17.47     0.009 C 
ENDBRANCH  43  44
ENDBRANCH  42  43
BRANCH  42  47
HETATM   47  N2  0Q4 A 125       1.819  16.864  34.702  1.00 17.78    -0.350 N 
HETATM   48  C1  0Q4 A 125       1.454  15.725  35.264  1.00 17.14     0.241 C 
HETATM   49  O1  0Q4 A 125       0.674  14.965  34.704  1.00 18.87    -0.271 OA
HETATM   50  HN2 0Q4 A 125       2.513  17.417  35.125  1.00 15.00     0.163 HD
BRANCH  48  51
HETATM   51  CA1 0Q4 A 125       2.172  15.358  36.588  1.00 18.90     0.180 C 
BRANCH  51  52
HETATM   52  CB1 0Q4 A 125       1.527  16.043  37.899  1.00 19.28     0.009 C 
HETATM   53  CG1 0Q4 A 125       2.188  17.384  38.225  1.00 20.08     0.012 C 
HETATM   54  CG2 0Q4 A 125       0.020  16.300  37.694  1.00 19.54     0.012 C 
ENDBRANCH  51  52
BRANCH  51  55
HETATM   55  N1  0Q4 A 125       3.609  15.635  36.529  1.00 19.10    -0.346 N 
HETATM   56  C   0Q4 A 125       4.548  14.692  36.710  1.00 21.89     0.249 C 
HETATM   57  O   0Q4 A 125       4.271  13.503  36.958  1.00 22.48    -0.271 OA
HETATM   58  H1  0Q4 A 125       3.849  16.563  36.321  1.00 15.00     0.163 HD
BRANCH  56  59
HETATM   59  CA  0Q4 A 125       6.037  15.165  36.678  1.00 21.76     0.274 C 
BRANCH  59  60
HETATM   60  N   0Q4 A 125       6.731  14.505  35.529  1.00 21.27    -0.067 N 
HETATM   61  H   0Q4 A 125       6.156  13.754  35.124  1.00 15.00     0.275 HD
HETATM   62  H2  0Q4 A 125       6.901  15.267  34.826  1.00 15.00     0.275 HD
HETATM   63  HN3 0Q4 A 125       7.632  14.105  35.836  1.00 15.00     0.275 HD
ENDBRANCH  59  60
BRANCH  59  64
HETATM   64  CB  0Q4 A 125       6.177  16.687  36.540  1.00 21.80     0.044 C 
BRANCH  64  65
HETATM   65  CG  0Q4 A 125       7.509  17.221  35.910  1.00 26.69     0.023 C 
BRANCH  65  66
HETATM   66  CD  0Q4 A 125       7.362  18.030  34.573  1.00 29.76     0.138 C 
BRANCH  66  67
HETATM   67  NE  0Q4 A 125       7.273  17.207  33.360  1.00 32.26    -0.227 N 
HETATM   68  CZ  0Q4 A 125       8.322  16.708  32.701  1.00 34.72     0.665 C 
HETATM   69  NH1 0Q4 A 125       9.543  16.939  33.154  1.00 35.07    -0.235 N 
HETATM   70  NH2 0Q4 A 125       8.161  16.085  31.524  1.00 35.86    -0.235 N 
HETATM   71 HH11 0Q4 A 125       9.677  17.477  33.984  1.00 15.00     0.174 HD
HETATM   72 HH12 0Q4 A 125      10.336  16.569  32.667  1.00 15.00     0.174 HD
HETATM   73 HH21 0Q4 A 125       7.252  15.984  31.124  1.00 15.00     0.174 HD
HETATM   74 HH22 0Q4 A 125       8.963  15.721  31.046  1.00 15.00     0.174 HD
HETATM   75  HE  0Q4 A 125       6.382  17.003  32.997  1.00 15.00     0.177 HD
ENDBRANCH  66  67
ENDBRANCH  65  66
ENDBRANCH  64  65
ENDBRANCH  59  64
ENDBRANCH  56  59
ENDBRANCH  51  55
ENDBRANCH  48  51
ENDBRANCH  42  47
ENDBRANCH  40  42
ENDBRANCH   1  39
TORSDOF 29
                                                                                                                                                                               
ENDMDL
