REMARK  17 active torsions:
REMARK  status: ('A' for Active; 'I' for Inactive)
REMARK    1  A    between atoms: CA_1  and  C_2 
REMARK    2  A    between atoms: CA_1  and  CB_4 
REMARK       I    between atoms: C_2  and  N_7 
REMARK    3  A    between atoms: N_7  and  CA_8 
REMARK    4  A    between atoms: CA_8  and  C_9 
REMARK    5  A    between atoms: CA_8  and  CB_11 
REMARK       I    between atoms: C_9  and  N_15 
REMARK    6  A    between atoms: N_15  and  CA_16 
REMARK    7  A    between atoms: CA_16  and  C_17 
REMARK    8  A    between atoms: CA_16  and  CB_19 
REMARK       I    between atoms: C_17  and  N_23 
REMARK    9  A    between atoms: N_23  and  CA_24 
REMARK   10  A    between atoms: CA_24  and  CB_27 
REMARK   11  A    between atoms: CA_24  and  CH_31 
REMARK   12  A    between atoms: C_25  and  O_26 
REMARK   13  A    between atoms: C_25  and  CM_33 
REMARK   14  A    between atoms: C_25  and  N_37 
REMARK   15  A    between atoms: CB_27  and  CG_28 
REMARK   16  A    between atoms: CH_31  and  OH_32 
REMARK   17  A    between atoms: CH_31  and  CM_33 
ROOT
ATOM      1  CA  VAL J   3     -10.960   4.876   4.845  1.00 14.89     0.180 C 
ENDROOT
BRANCH   1   2
ATOM      2  N   VAL J   3      -9.910   4.519   5.808  1.00 14.15    -0.346 N 
ATOM      3  H09 VAL J   3      -9.797   5.081   6.641  1.00 14.15     0.163 HD
ATOM      4  C   VAL J   2      -9.112   3.489   5.619  1.00 16.04     0.241 C 
ATOM      5  O   VAL J   2      -9.218   2.729   4.642  1.00 16.00    -0.271 OA
BRANCH   4   6
ATOM      6  CA  VAL J   2      -8.015   3.280   6.677  1.00 16.95     0.180 C 
BRANCH   6   7
ATOM      7  N   VAL J   2      -7.250   4.521   6.657  1.00 17.44    -0.347 N 
HETATM    8  C   IVA J   1      -6.474   4.874   5.640  1.00 19.71     0.218 C 
HETATM    9  O   IVA J   1      -6.315   4.123   4.674  1.00 19.85    -0.274 OA
ATOM     10  H10 VAL J   2      -7.315   5.141   7.453  1.00 17.44     0.163 HD
BRANCH   8  11
HETATM   11  CA  IVA J   1      -5.782   6.222   5.714  1.00 23.24     0.106 C 
BRANCH  11  12
HETATM   12  CB  IVA J   1      -5.230   6.717   4.363  1.00 24.71    -0.014 C 
HETATM   13  CG1 IVA J   1      -3.918   6.038   3.991  1.00 28.30     0.010 C 
HETATM   14  CG2 IVA J   1      -6.183   6.583   3.184  1.00 26.67     0.010 C 
ENDBRANCH  11  12
ENDBRANCH   8  11
ENDBRANCH   6   7
BRANCH   6  15
ATOM     15  CB  VAL J   2      -8.672   2.962   8.054  1.00 19.32     0.009 C 
ATOM     16  CG1 VAL J   2      -8.870   1.450   8.281  1.00 23.23     0.012 C 
ATOM     17  CG2 VAL J   2      -7.850   3.562   9.205  1.00 24.26     0.012 C 
ENDBRANCH   6  15
ENDBRANCH   4   6
ENDBRANCH   1   2
BRANCH   1  18
ATOM     18  C   VAL J   3     -10.549   6.184   4.175  1.00 17.51     0.241 C 
HETATM   19  N   STA J   4     -11.079   6.467   2.970  1.00 19.03    -0.352 N 
HETATM   20  H09 STA J   4     -11.701   5.803   2.533  1.00 19.03     0.163 HD
ATOM     21  O   VAL J   3      -9.792   6.942   4.772  1.00 15.93    -0.271 OA
BRANCH  19  22
HETATM   22  CA  STA J   4     -10.766   7.724   2.284  1.00 22.00     0.113 C 
BRANCH  22  23
HETATM   23  CB  STA J   4      -9.256   7.998   2.289  1.00 20.70     0.031 C 
BRANCH  23  24
HETATM   24  CG  STA J   4      -8.696   8.341   0.896  1.00 23.09    -0.021 C 
HETATM   25  CD1 STA J   4      -7.955   7.168   0.259  1.00 26.26     0.009 C 
HETATM   26  CD2 STA J   4      -7.769   9.566   0.929  1.00 21.88     0.009 C 
ENDBRANCH  23  24
ENDBRANCH  22  23
BRANCH  22  27
HETATM   27  CH  STA J   4     -11.460   7.716   0.896  1.00 22.11     0.145 C 
BRANCH  27  28
HETATM   28  OH  STA J   4     -10.980   6.700   0.024  1.00 20.84    -0.393 OA
HETATM   29  H15 STA J   4     -10.970   5.859   0.487  1.00 20.84     0.210 HD
ENDBRANCH  27  28
BRANCH  27  30
HETATM   30  CM  STA J   4     -12.962   7.571   1.049  1.00 21.93     0.097 C 
BRANCH  30  31
HETATM   31  C   STA J   4     -13.480   6.185   0.717  1.00 28.39     0.353 C 
BRANCH  31  32
HETATM   32  O   STA J   4     -12.835   5.025   1.195  1.00 30.94    -0.368 OA
HETATM   33  H03 STA J   4     -12.200   4.720   0.542  1.00 30.94     0.212 HD
ENDBRANCH  31  32
BRANCH  31  34
ATOM     34  N   ALA J   5     -14.466   6.168  -0.177  1.00 32.34     0.107 N 
ATOM     35  H01 ALA J   5     -14.088   6.331  -1.100  1.00 32.34     0.316 HD
ATOM     36  H18 ALA J   5     -15.135   6.890   0.045  1.00 32.34     0.316 HD
ENDBRANCH  31  34
ENDBRANCH  30  31
ENDBRANCH  27  30
ENDBRANCH  22  27
ENDBRANCH  19  22
ENDBRANCH   1  18
BRANCH   1  37
ATOM     37  CB  VAL J   3     -12.319   5.059   5.586  1.00 18.12     0.009 C 
ATOM     38  CG1 VAL J   3     -13.280   5.944   4.809  1.00 22.19     0.012 C 
ATOM     39  CG2 VAL J   3     -12.976   3.702   5.865  1.00 17.43     0.012 C 
ENDBRANCH   1  37
TORSDOF 17
