          AutoDock 4.2 Release 4.2.6   
         (C) 1989-2012 The Scripps Research Institute
        AutoDock comes with ABSOLUTELY NO WARRANTY.
        AutoDock is free software, and you are welcome
        to redistribute it under certain conditions;
        for details type 'autodock4 -C'

                     main.cc  $Revision: 1.213 $

                   Compiled on Jul 18 2014 at 15:34:58


This file was created at:			10:36 32" p.m., 11/24/2025
                   on host:		"LAPTOP-PFTQOH6G"
Current Working Directory = "C:\Program Files (x86)\Docking\November 25\2411 Docking\1TCW"

      ________________________________________________________________

                   SETTING UP DEFAULT PARAMETER LIBRARY
      ________________________________________________________________


Random number generator was seeded with values 12792, 1764012992.
Docking parameter file (DPF) used for this docking:		dock.dpf
DPF> autodock_parameter_version 4.2       # used by autodock to validate parameter set

	Autodock parameter version 4.2.
DPF> outlev 1                             # diagnostic output level

Output Level = 1  ADT-COMPATIBLE OUTPUT DURING DOCKING.
DPF> intelec                              # calculate internal electrostatics

Electrostatic energies will be calculated for all non-bonds between moving atoms.
DPF> seed pid time                        # seeds for random generator

Random number generator was seeded with values 12792, 1764012992.
DPF> ligand_types A C HD OA N             # atoms types in ligand

DPF> fld 1tcw.maps.fld                    # grid_data_file

Opening Grid Map Dimensions file:		1tcw.maps.fld
Grid Point Spacing =				0.375 Angstroms

Even Number of User-specified Grid Points =	30 x-points
						38 y-points
						30 z-points

Coordinates of Central Grid Point of Maps =	(56.789, 3.056, 20.161)
Macromolecule file used to create Grid Maps =	1tcw.pdbqt
Grid Parameter file used to create Grid Maps =	grid.gpf
Minimum coordinates in grid = (51.164, -4.069, 14.536)
Maximum coordinates in grid = (62.414, 10.181, 25.786)

DPF> map 1tcw.A.map                       # atom-specific affinity map

DPF> map 1tcw.C.map                       # atom-specific affinity map

DPF> map 1tcw.HD.map                      # atom-specific affinity map

DPF> map 1tcw.OA.map                      # atom-specific affinity map

DPF> map 1tcw.N.map                       # atom-specific affinity map

DPF> elecmap 1tcw.e.map                   # electrostatics map

DPF> desolvmap 1tcw.d.map                 # desolvation map

DPF> move lig1tcw.pdbqt                   # small molecule

1,4-interactions will be _ignored_ in the non-bonded internal energy calculation.

Ligand PDBQT file = "lig1tcw.pdbqt"

INPUT LIGAND PDBQT FILE:
________________________

INPUT-LIGAND-PDBQT: REMARK  15 active torsions:
INPUT-LIGAND-PDBQT: REMARK  status: ('A' for Active; 'I' for Inactive)
INPUT-LIGAND-PDBQT: REMARK    1  A    between atoms: C1_1  and  O5_5 
INPUT-LIGAND-PDBQT: REMARK    2  A    between atoms: O5_5  and  C6_6 
INPUT-LIGAND-PDBQT: REMARK       I    between atoms: C6_6  and  N8_8 
INPUT-LIGAND-PDBQT: REMARK    3  A    between atoms: N8_8  and  C9_10 
INPUT-LIGAND-PDBQT: REMARK    4  A    between atoms: C9_10  and  C10_11 
INPUT-LIGAND-PDBQT: REMARK    5  A    between atoms: C9_10  and  C17_18 
INPUT-LIGAND-PDBQT: REMARK    6  A    between atoms: C10_11  and  C11_12 
INPUT-LIGAND-PDBQT: REMARK    7  A    between atoms: C17_18  and  O18_19 
INPUT-LIGAND-PDBQT: REMARK    8  A    between atoms: C17_18  and  C19_21 
INPUT-LIGAND-PDBQT: REMARK    9  A    between atoms: C19_21  and  C20_22 
INPUT-LIGAND-PDBQT: REMARK   10  A    between atoms: C20_22  and  C21_23 
INPUT-LIGAND-PDBQT: REMARK   11  A    between atoms: C20_22  and  C28_30 
INPUT-LIGAND-PDBQT: REMARK   12  A    between atoms: C21_23  and  C22_24 
INPUT-LIGAND-PDBQT: REMARK       I    between atoms: C28_30  and  N30_32 
INPUT-LIGAND-PDBQT: REMARK   13  A    between atoms: N30_32  and  C31_34 
INPUT-LIGAND-PDBQT: REMARK   14  A    between atoms: C31_34  and  C32_35 
INPUT-LIGAND-PDBQT: REMARK   15  A    between atoms: C31_34  and  C35_38 
INPUT-LIGAND-PDBQT: ROOT
INPUT-LIGAND-PDBQT: HETATM    1  C20 IM1 B 600      58.322   3.414  20.482  1.00 14.60     0.084 C 
INPUT-LIGAND-PDBQT: ENDROOT
INPUT-LIGAND-PDBQT: BRANCH   1   2
INPUT-LIGAND-PDBQT: HETATM    2  C19 IM1 B 600      57.937   2.157  19.790  1.00  8.92     0.048 C 
INPUT-LIGAND-PDBQT: BRANCH   2   3
INPUT-LIGAND-PDBQT: HETATM    3  C17 IM1 B 600      56.524   2.017  19.224  1.00 12.93     0.142 C 
INPUT-LIGAND-PDBQT: BRANCH   3   4
INPUT-LIGAND-PDBQT: HETATM    4  C9  IM1 B 600      56.119   0.547  19.203  1.00 15.38     0.119 C 
INPUT-LIGAND-PDBQT: BRANCH   4   5
INPUT-LIGAND-PDBQT: HETATM    5  N8  IM1 B 600      56.810  -0.143  18.160  1.00 26.76    -0.329 N 
INPUT-LIGAND-PDBQT: HETATM    6  C6  IM1 B 600      56.601  -0.005  16.864  1.00 29.91     0.361 C 
INPUT-LIGAND-PDBQT: HETATM    7  O7  IM1 B 600      55.743   0.785  16.469  1.00 31.37    -0.238 OA
INPUT-LIGAND-PDBQT: ATOM      8  H8  IM1 B 600      57.533  -0.804  18.444  1.00  0.00     0.165 HD
INPUT-LIGAND-PDBQT: BRANCH   6   9
INPUT-LIGAND-PDBQT: HETATM    9  O5  IM1 B 600      57.379  -0.751  15.956  1.00 36.53    -0.294 OA
INPUT-LIGAND-PDBQT: BRANCH   9  10
INPUT-LIGAND-PDBQT: HETATM   10  C1  IM1 B 600      58.112  -1.967  16.089  1.00 39.66     0.061 C 
INPUT-LIGAND-PDBQT: HETATM   11  C2  IM1 B 600      59.345  -1.895  15.175  1.00 40.54     0.046 C 
INPUT-LIGAND-PDBQT: HETATM   12  C3  IM1 B 600      57.133  -2.997  15.509  1.00 42.17     0.046 C 
INPUT-LIGAND-PDBQT: HETATM   13  C4  IM1 B 600      58.697  -2.462  17.434  1.00 36.19     0.046 C 
INPUT-LIGAND-PDBQT: ENDBRANCH   9  10
INPUT-LIGAND-PDBQT: ENDBRANCH   6   9
INPUT-LIGAND-PDBQT: ENDBRANCH   4   5
INPUT-LIGAND-PDBQT: BRANCH   4  14
INPUT-LIGAND-PDBQT: HETATM   14  C10 IM1 B 600      56.484  -0.237  20.427  1.00 12.98     0.066 C 
INPUT-LIGAND-PDBQT: BRANCH  14  15
INPUT-LIGAND-PDBQT: HETATM   15  C11 IM1 B 600      55.226  -0.828  20.971  1.00 18.40    -0.056 A 
INPUT-LIGAND-PDBQT: HETATM   16  C12 IM1 B 600      54.996  -2.188  20.795  1.00 18.76     0.007 A 
INPUT-LIGAND-PDBQT: HETATM   17  C13 IM1 B 600      53.810  -2.731  21.280  1.00 27.80     0.001 A 
INPUT-LIGAND-PDBQT: HETATM   18  C14 IM1 B 600      52.868  -1.896  21.939  1.00 29.10     0.000 A 
INPUT-LIGAND-PDBQT: HETATM   19  C15 IM1 B 600      53.126  -0.530  22.110  1.00 23.02     0.001 A 
INPUT-LIGAND-PDBQT: HETATM   20  C16 IM1 B 600      54.309   0.007  21.626  1.00 18.59     0.007 A 
INPUT-LIGAND-PDBQT: ENDBRANCH  14  15
INPUT-LIGAND-PDBQT: ENDBRANCH   4  14
INPUT-LIGAND-PDBQT: ENDBRANCH   3   4
INPUT-LIGAND-PDBQT: BRANCH   3  21
INPUT-LIGAND-PDBQT: HETATM   21  O18 IM1 B 600      55.472   2.584  20.004  1.00 13.95    -0.393 OA
INPUT-LIGAND-PDBQT: ATOM     22  H18 IM1 B 600      55.724   3.500  20.017  1.00  0.00     0.210 HD
INPUT-LIGAND-PDBQT: ENDBRANCH   3  21
INPUT-LIGAND-PDBQT: ENDBRANCH   2   3
INPUT-LIGAND-PDBQT: ENDBRANCH   1   2
INPUT-LIGAND-PDBQT: BRANCH   1  23
INPUT-LIGAND-PDBQT: HETATM   23  C21 IM1 B 600      59.108   3.230  21.809  1.00 19.27     0.052 C 
INPUT-LIGAND-PDBQT: BRANCH  23  24
INPUT-LIGAND-PDBQT: HETATM   24  C22 IM1 B 600      58.272   2.502  22.823  1.00 22.95    -0.057 A 
INPUT-LIGAND-PDBQT: HETATM   25  C23 IM1 B 600      56.943   2.886  23.051  1.00 24.72     0.007 A 
INPUT-LIGAND-PDBQT: HETATM   26  C24 IM1 B 600      56.171   2.168  23.966  1.00 29.77     0.001 A 
INPUT-LIGAND-PDBQT: HETATM   27  C25 IM1 B 600      56.730   1.077  24.649  1.00 32.69     0.000 A 
INPUT-LIGAND-PDBQT: HETATM   28  C26 IM1 B 600      58.072   0.709  24.406  1.00 30.22     0.001 A 
INPUT-LIGAND-PDBQT: HETATM   29  C27 IM1 B 600      58.843   1.423  23.492  1.00 23.45     0.007 A 
INPUT-LIGAND-PDBQT: ENDBRANCH  23  24
INPUT-LIGAND-PDBQT: ENDBRANCH   1  23
INPUT-LIGAND-PDBQT: BRANCH   1  30
INPUT-LIGAND-PDBQT: HETATM   30  C28 IM1 B 600      59.195   4.317  19.663  1.00 12.35     0.222 C 
INPUT-LIGAND-PDBQT: HETATM   31  O29 IM1 B 600      60.297   4.092  19.170  1.00  8.82    -0.273 OA
INPUT-LIGAND-PDBQT: HETATM   32  N30 IM1 B 600      58.582   5.440  19.547  1.00 12.71    -0.349 N 
INPUT-LIGAND-PDBQT: ATOM     33  H30 IM1 B 600      57.667   5.601  19.969  1.00  0.00     0.163 HD
INPUT-LIGAND-PDBQT: BRANCH  32  34
INPUT-LIGAND-PDBQT: HETATM   34  C31 IM1 B 600      59.245   6.434  18.805  1.00 17.41     0.155 C 
INPUT-LIGAND-PDBQT: BRANCH  34  35
INPUT-LIGAND-PDBQT: HETATM   35  C32 IM1 B 600      58.403   6.489  17.510  1.00 15.27     0.007 C 
INPUT-LIGAND-PDBQT: HETATM   36  C33 IM1 B 600      57.855   7.808  17.126  1.00 19.84     0.012 C 
INPUT-LIGAND-PDBQT: HETATM   37  C34 IM1 B 600      59.378   5.969  16.457  1.00 14.27     0.012 C 
INPUT-LIGAND-PDBQT: ENDBRANCH  34  35
INPUT-LIGAND-PDBQT: BRANCH  34  38
INPUT-LIGAND-PDBQT: HETATM   38  C35 IM1 B 600      59.261   7.571  19.771  1.00 15.39     0.104 A 
INPUT-LIGAND-PDBQT: HETATM   39  N36 IM1 B 600      58.494   8.595  19.892  1.00 18.67    -0.353 N 
INPUT-LIGAND-PDBQT: HETATM   40  C37 IM1 B 600      59.215   9.398  20.729  1.00 20.60     0.106 A 
INPUT-LIGAND-PDBQT: ATOM     41  H36 IM1 B 600      57.581   8.765  19.471  1.00  0.00     0.166 HD
INPUT-LIGAND-PDBQT: HETATM   42  C38 IM1 B 600      60.396   8.768  21.066  1.00 20.53     0.106 A 
INPUT-LIGAND-PDBQT: HETATM   43  N39 IM1 B 600      60.390   7.570  20.420  1.00 18.40    -0.353 N 
INPUT-LIGAND-PDBQT: ATOM     44  H39 IM1 B 600      61.103   6.841  20.440  1.00  0.00     0.166 HD
INPUT-LIGAND-PDBQT: ENDBRANCH  34  38
INPUT-LIGAND-PDBQT: ENDBRANCH  32  34
INPUT-LIGAND-PDBQT: ENDBRANCH   1  30
INPUT-LIGAND-PDBQT: TORSDOF 15
________________________________________________________________________________

Total charge on ligand                               =	+0.002 e
REMARK  15 active torsions:
REMARK  status: ('A' for Active; 'I' for Inactive)
REMARK    1  A    between atoms: C1_1  and  O5_5 
REMARK    2  A    between atoms: O5_5  and  C6_6 
REMARK       I    between atoms: C6_6  and  N8_8 
REMARK    3  A    between atoms: N8_8  and  C9_10 
REMARK    4  A    between atoms: C9_10  and  C10_11 
REMARK    5  A    between atoms: C9_10  and  C17_18 
REMARK    6  A    between atoms: C10_11  and  C11_12 
REMARK    7  A    between atoms: C17_18  and  O18_19 
REMARK    8  A    between atoms: C17_18  and  C19_21 
REMARK    9  A    between atoms: C19_21  and  C20_22 
REMARK   10  A    between atoms: C20_22  and  C21_23 
REMARK   11  A    between atoms: C20_22  and  C28_30 
REMARK   12  A    between atoms: C21_23  and  C22_24 
REMARK       I    between atoms: C28_30  and  N30_32 
REMARK   13  A    between atoms: N30_32  and  C31_34 
REMARK   14  A    between atoms: C31_34  and  C32_35 
REMARK   15  A    between atoms: C31_34  and  C35_38 


Number of Rotatable Bonds in Small Molecule =	15 torsions
Number of atoms in ligand:  44

Number of non-hydrogen atoms in ligand:  39

Number of vibrational degrees of freedom of ligand:  126


Number of torsional degrees of freedom = 15
Estimated loss of torsional free energy upon binding = +4.4745 kcal/mol


DPF> about 57.488 2.573 19.823            # small molecule center

Small molecule center of rotation =	(+57.488, +2.573, +19.823)

DPF> tran0 random                         # initial coordinates/A or random

Initial translation =			(56.797, 4.665, 17.243) Angstroms
DPF> quaternion0 random                   # initial orientation

Each run will begin with a new, random initial orientation.
Initial quaternion,  (x,y,z,w) =	( 0.360, -0.342, -0.855, -0.149 ),
DPF> dihe0 random                         # initial dihedrals (relative) or random

DPF> torsdof 15                            # torsional degrees of freedom

Number of torsional degrees of freedom = 15
Free energy coefficient for torsional degrees of freedom = 0.2983, the factory default value.

Estimated loss of torsional free energy upon binding = +4.4745 kcal/mol

DPF> rmstol 2.0                           # cluster_tolerance/A

Maximum RMS tolerance for conformational cluster analysis = 2.00 Angstroms
DPF> extnrg 1000.0                        # external grid energy

External grid energy (beyond grid map walls) = 1000.00

DPF> e0max 0.0 10000                      # max initial energy; max number of retries

Using user-specified maximum number of retries for simanneal initialization, 10000 retries.
If the simanneal initial energy is greater than e0max, 0.000,
then a new, random initial state will be created.

DPF> ga_pop_size 150                      # number of individuals in population

A population of 150 individuals will be used
DPF> ga_num_evals 2500000                 # maximum number of energy evaluations

There will be at most 2500000 function evaluations used.
DPF> ga_num_generations 27000             # maximum number of generations

The GA will run for at most 27000 generations.
DPF> ga_elitism 1                         # number of top individuals to survive to next generation

The 1 best will be preserved each GA generation.
DPF> ga_mutation_rate 0.02                # rate of gene mutation

The mutation rate is 0.020000.
DPF> ga_crossover_rate 0.8                # rate of crossover

The crossover rate is 0.800000.
DPF> ga_window_size 10                    # 

The GA's selection window is 10 generations.
DPF> ga_cauchy_alpha 0.0                  # Alpha parameter of Cauchy distribution

The alpha parameter (for the Cauchy distribution) is being set to 0.000000.
DPF> ga_cauchy_beta 1.0                   # Beta parameter Cauchy distribution

The beta parameter (for the Cauchy distribution) is being set to 1.000000.
DPF> set_ga                               # set the above parameters for GA or LGA

DPF> sw_max_its 300                       # iterations of Solis & Wets local search

Solis & Wets algorithms will perform at most 300 iterations.
DPF> sw_max_succ 4                        # consecutive successes before changing rho

Solis & Wets algorithms expand rho every 4 in a row successes.
DPF> sw_max_fail 4                        # consecutive failures before changing rho

Solis & Wets algorithms contract rho every 4 in a row failures.
DPF> sw_rho 1.0                           # size of local search space to sample

rho is set to 1.000000.
DPF> sw_lb_rho 0.01                       # lower bound on rho

rho will never get smaller than 0.010000.
DPF> ls_search_freq 0.06                  # probability of performing local search on individual

Local search will be performed with frequency 0.060000.
DPF> set_psw1                             # set the above pseudo-Solis & Wets parameters

Creating a new Local Search object using the pseudo-Solis-Wets algorithm (pSW1) with the current settings.

DPF> unbound_model bound                  # state of unbound ligand

DPF> ga_run 10                            # do this many hybrid GA-LS runs

centering ligand on specified point: 57.488 2.573 19.823
Furthest true ligand atom from "about" center is 7.098 Angstroms (maxrad).
Number of requested GA dockings = 10 runs
Unbound model to be used is 'same as bound' [AutoDock 4.2 default].

	BEGINNING GENETIC ALGORITHM DOCKING 1 of 10
Run: 1 Seed: 1672809329 838504051 [ Run 1 of 10 GA/GALS ]
Beginning LAMARCKIAN GENETIC ALGORITHM (LGA), with a maximum of 2500000 energy evaluations.

Final-Value: -14.023


	FINAL GENETIC ALGORITHM DOCKED STATE
	_______________________________________________


Detailed state:  trans 57.152 3.083 20.785 quatxyzw -0.481842 0.561548 0.117484 0.662337 center 57.488 2.573 19.823 ntor 15 123.5364 160.5393 -21.9806 180.0000 92.3049 -15.5776 -54.1983 -4.0092 -124.6930 147.1949 -9.9441 -94.6200 135.4835 -16.7936 -20.1265
State:	 57.152   3.083  20.785  -0.643  0.750  0.157 97.043    123.54  160.54  -21.98  180.00   92.30  -15.58  -54.20   -4.01 -124.69  147.19   -9.94  -94.62  135.48  -16.79  -20.13

DOCKED: MODEL        1
DOCKED: USER    Run = 1
DOCKED: USER    DPF = dock.dpf
DOCKED: USER  
DOCKED: USER    Estimated Free Energy of Binding    =   -5.56 kcal/mol  [=(1)+(2)+(3)-(4)]
DOCKED: USER    Estimated Inhibition Constant, Ki   =   83.35 uM (micromolar)  [Temperature = 298.15 K]
DOCKED: USER    
DOCKED: USER    (1) Final Intermolecular Energy     =  -10.04 kcal/mol
DOCKED: USER        vdW + Hbond + desolv Energy     =   -9.79 kcal/mol
DOCKED: USER        Electrostatic Energy            =   -0.25 kcal/mol
DOCKED: USER    (2) Final Total Internal Energy     =   -3.98 kcal/mol
DOCKED: USER    (3) Torsional Free Energy           =   +4.47 kcal/mol
DOCKED: USER    (4) Unbound System's Energy  [=(2)] =   -3.98 kcal/mol
DOCKED: USER    
DOCKED: USER    
DOCKED: USER    NEWDPF move lig1tcw.pdbqt
DOCKED: USER    NEWDPF about 57.488000 2.573000 19.823000
DOCKED: USER    NEWDPF tran0 57.151586 3.083047 20.784626
DOCKED: USER    NEWDPF quaternion0 -0.481842 0.561548 0.117484 0.662337
DOCKED: USER    NEWDPF axisangle0 -0.643136 0.749524 0.156812 97.043345
DOCKED: USER    NEWDPF quat0 -0.643136 0.749524 0.156812 97.043345
DOCKED: USER    NEWDPF dihe0 123.54 160.54 -21.98 180.00 92.30 -15.58 -54.20 -4.01 -124.69 147.19 -9.94 -94.62 135.48 -16.79 -20.13 
DOCKED: USER  keepresnum = 1 
DOCKED: USER  
DOCKED: REMARK  15 active torsions:
DOCKED: REMARK  status: ('A' for Active; 'I' for Inactive)
DOCKED: REMARK    1  A    between atoms: C1_1  and  O5_5 
DOCKED: REMARK    2  A    between atoms: O5_5  and  C6_6 
DOCKED: REMARK       I    between atoms: C6_6  and  N8_8 
DOCKED: REMARK    3  A    between atoms: N8_8  and  C9_10 
DOCKED: REMARK    4  A    between atoms: C9_10  and  C10_11 
DOCKED: REMARK    5  A    between atoms: C9_10  and  C17_18 
DOCKED: REMARK    6  A    between atoms: C10_11  and  C11_12 
DOCKED: REMARK    7  A    between atoms: C17_18  and  O18_19 
DOCKED: REMARK    8  A    between atoms: C17_18  and  C19_21 
DOCKED: REMARK    9  A    between atoms: C19_21  and  C20_22 
DOCKED: REMARK   10  A    between atoms: C20_22  and  C21_23 
DOCKED: REMARK   11  A    between atoms: C20_22  and  C28_30 
DOCKED: REMARK   12  A    between atoms: C21_23  and  C22_24 
DOCKED: REMARK       I    between atoms: C28_30  and  N30_32 
DOCKED: REMARK   13  A    between atoms: N30_32  and  C31_34 
DOCKED: REMARK   14  A    between atoms: C31_34  and  C32_35 
DOCKED: REMARK   15  A    between atoms: C31_34  and  C35_38 
DOCKED: USER                              x       y       z     vdW  Elec       q    Type
DOCKED: USER                           _______ _______ _______ _____ _____    ______ ____
DOCKED: ROOT
DOCKED: ATOM      1  C20 IM1 B 600      56.548   2.596  21.896 -0.21 -0.01    +0.084 C 
DOCKED: ENDROOT
DOCKED: BRANCH   1   2
DOCKED: ATOM      2  C19 IM1 B 600      57.494   2.576  20.751 -0.23 -0.01    +0.048 C 
DOCKED: BRANCH   2   3
DOCKED: ATOM      3  C17 IM1 B 600      57.253   3.509  19.565 -0.26 -0.06    +0.142 C 
DOCKED: BRANCH   3   4
DOCKED: ATOM      4  C9  IM1 B 600      58.171   3.125  18.410 -0.31 -0.09    +0.119 C 
DOCKED: BRANCH   4   5
DOCKED: ATOM      5  N8  IM1 B 600      57.885   1.797  17.969 -0.09 +0.39    -0.329 N 
DOCKED: ATOM      6  C6  IM1 B 600      56.858   1.427  17.227 -0.14 -0.35    +0.361 C 
DOCKED: ATOM      7  O7  IM1 B 600      56.046   2.273  16.851 -0.03 +0.19    -0.238 OA
DOCKED: ATOM      8  H8  IM1 B 600      58.536   1.065  18.254 -0.33 -0.36    +0.165 HD
DOCKED: BRANCH   6   9
DOCKED: ATOM      9  O5  IM1 B 600      56.721   0.073  16.862 -0.11 +0.23    -0.294 OA
DOCKED: BRANCH   9  10
DOCKED: ATOM     10  C1  IM1 B 600      56.034  -0.571  15.791 -0.15 -0.03    +0.061 C 
DOCKED: ATOM     11  C2  IM1 B 600      56.016  -2.083  16.063 -0.04 -0.01    +0.046 C 
DOCKED: ATOM     12  C3  IM1 B 600      56.967  -0.300  14.603 -0.20 -0.05    +0.046 C 
DOCKED: ATOM     13  C4  IM1 B 600      54.565  -0.261  15.418 -0.22 -0.01    +0.046 C 
DOCKED: ENDBRANCH   9  10
DOCKED: ENDBRANCH   6   9
DOCKED: ENDBRANCH   4   5
DOCKED: BRANCH   4  14
DOCKED: ATOM     14  C10 IM1 B 600      58.008   3.939  17.161 -0.42 -0.06    +0.066 C 
DOCKED: BRANCH  14  15
DOCKED: ATOM     15  C11 IM1 B 600      58.506   5.315  17.456 -0.43 +0.03    -0.056 A 
DOCKED: ATOM     16  C12 IM1 B 600      58.132   6.355  16.613 -0.50 -0.00    +0.007 A 
DOCKED: ATOM     17  C13 IM1 B 600      58.620   7.632  16.874 -0.44 -0.00    +0.001 A 
DOCKED: ATOM     18  C14 IM1 B 600      59.479   7.846  17.985 -0.35 -0.00    +0.000 A 
DOCKED: ATOM     19  C15 IM1 B 600      59.836   6.783  18.824 -0.31 -0.00    +0.001 A 
DOCKED: ATOM     20  C16 IM1 B 600      59.347   5.512  18.560 -0.36 -0.00    +0.007 A 
DOCKED: ENDBRANCH  14  15
DOCKED: ENDBRANCH   4  14
DOCKED: ENDBRANCH   3   4
DOCKED: BRANCH   3  21
DOCKED: ATOM     21  O18 IM1 B 600      55.972   3.422  18.942 -0.71 +0.03    -0.393 OA
DOCKED: ATOM     22  H18 IM1 B 600      56.080   4.019  18.210 +0.08 -0.05    +0.210 HD
DOCKED: ENDBRANCH   3  21
DOCKED: ENDBRANCH   2   3
DOCKED: ENDBRANCH   1   2
DOCKED: BRANCH   1  23
DOCKED: ATOM     23  C21 IM1 B 600      55.750   1.282  22.124 -0.13 -0.00    +0.052 C 
DOCKED: BRANCH  23  24
DOCKED: ATOM     24  C22 IM1 B 600      54.804   1.033  20.983 -0.14 +0.00    -0.057 A 
DOCKED: ATOM     25  C23 IM1 B 600      53.768   1.938  20.713 -0.31 -0.00    +0.007 A 
DOCKED: ATOM     26  C24 IM1 B 600      52.928   1.709  19.622 -0.35 -0.00    +0.001 A 
DOCKED: ATOM     27  C25 IM1 B 600      53.124   0.579  18.812 -0.26 -0.00    +0.000 A 
DOCKED: ATOM     28  C26 IM1 B 600      54.172  -0.321  19.105 -0.11 -0.00    +0.001 A 
DOCKED: ATOM     29  C27 IM1 B 600      55.013  -0.093  20.192 -0.07 -0.00    +0.007 A 
DOCKED: ENDBRANCH  23  24
DOCKED: ENDBRANCH   1  23
DOCKED: BRANCH   1  30
DOCKED: ATOM     30  C28 IM1 B 600      57.200   2.861  23.220 -0.17 -0.00    +0.222 C 
DOCKED: ATOM     31  O29 IM1 B 600      56.836   2.527  24.344 -0.13 -0.01    -0.273 OA
DOCKED: ATOM     32  N30 IM1 B 600      58.267   3.539  22.992 -0.09 +0.02    -0.349 N 
DOCKED: ATOM     33  H30 IM1 B 600      58.545   3.805  22.047 +0.08 -0.03    +0.163 HD
DOCKED: BRANCH  32  34
DOCKED: ATOM     34  C31 IM1 B 600      59.029   3.893  24.120 -0.27 -0.00    +0.155 C 
DOCKED: BRANCH  34  35
DOCKED: ATOM     35  C32 IM1 B 600      60.127   2.805  24.124 -0.25 +0.00    +0.007 C 
DOCKED: ATOM     36  C33 IM1 B 600      59.726   1.453  24.569 -0.33 +0.00    +0.012 C 
DOCKED: ATOM     37  C34 IM1 B 600      60.589   2.793  22.669 -0.39 +0.00    +0.012 C 
DOCKED: ENDBRANCH  34  35
DOCKED: BRANCH  34  38
DOCKED: ATOM     38  C35 IM1 B 600      59.349   5.321  23.831 -0.29 -0.01    +0.104 A 
DOCKED: ATOM     39  N36 IM1 B 600      59.353   6.361  24.586 -0.25 +0.04    -0.353 N 
DOCKED: ATOM     40  C37 IM1 B 600      59.410   7.378  23.675 -0.37 -0.02    +0.106 A 
DOCKED: ATOM     41  H36 IM1 B 600      59.320   6.414  25.603 +0.06 -0.01    +0.166 HD
DOCKED: ATOM     42  C38 IM1 B 600      59.449   6.851  22.400 -0.26 -0.03    +0.106 A 
DOCKED: ATOM     43  N39 IM1 B 600      59.409   5.498  22.542 -0.10 +0.08    -0.353 N 
DOCKED: ATOM     44  H39 IM1 B 600      59.424   4.788  21.810 +0.09 -0.05    +0.166 HD
DOCKED: ENDBRANCH  34  38
DOCKED: ENDBRANCH  32  34
DOCKED: ENDBRANCH   1  30
DOCKED: TORSDOF 15
DOCKED: TER
DOCKED: ENDMDL
________________________________________________________________________________


	BEGINNING GENETIC ALGORITHM DOCKING 2 of 10
Run: 2 Seed: 1075283761 1316200260 [ Run 2 of 10 GA/GALS ]
Beginning LAMARCKIAN GENETIC ALGORITHM (LGA), with a maximum of 2500000 energy evaluations.

Final-Value: -14.282


	FINAL GENETIC ALGORITHM DOCKED STATE
	_______________________________________________


Detailed state:  trans 58.975 2.908 20.555 quatxyzw -0.473637 -0.743500 -0.258271 0.395186 center 57.488 2.573 19.823 ntor 15 -85.5673 -28.2667 -167.1466 179.7753 123.2328 149.4579 -50.4279 111.6862 41.8625 -79.5644 3.0068 72.2385 152.4197 -42.3323 16.7477
State:	 58.975   2.908  20.555  -0.516 -0.809 -0.281 133.445    -85.57  -28.27 -167.15  179.78  123.23  149.46  -50.43  111.69   41.86  -79.56    3.01   72.24  152.42  -42.33   16.75

DOCKED: MODEL        2
DOCKED: USER    Run = 2
DOCKED: USER    DPF = dock.dpf
DOCKED: USER  
DOCKED: USER    Estimated Free Energy of Binding    =   -5.86 kcal/mol  [=(1)+(2)+(3)-(4)]
DOCKED: USER    Estimated Inhibition Constant, Ki   =   50.86 uM (micromolar)  [Temperature = 298.15 K]
DOCKED: USER    
DOCKED: USER    (1) Final Intermolecular Energy     =  -10.33 kcal/mol
DOCKED: USER        vdW + Hbond + desolv Energy     =   -9.94 kcal/mol
DOCKED: USER        Electrostatic Energy            =   -0.40 kcal/mol
DOCKED: USER    (2) Final Total Internal Energy     =   -3.95 kcal/mol
DOCKED: USER    (3) Torsional Free Energy           =   +4.47 kcal/mol
DOCKED: USER    (4) Unbound System's Energy  [=(2)] =   -3.95 kcal/mol
DOCKED: USER    
DOCKED: USER    
DOCKED: USER    NEWDPF move lig1tcw.pdbqt
DOCKED: USER    NEWDPF about 57.488000 2.573000 19.823000
DOCKED: USER    NEWDPF tran0 58.975023 2.908252 20.554850
DOCKED: USER    NEWDPF quaternion0 -0.473637 -0.743500 -0.258271 0.395186
DOCKED: USER    NEWDPF axisangle0 -0.515607 -0.809383 -0.281157 133.444792
DOCKED: USER    NEWDPF quat0 -0.515607 -0.809383 -0.281157 133.444792
DOCKED: USER    NEWDPF dihe0 -85.57 -28.27 -167.15 179.78 123.23 149.46 -50.43 111.69 41.86 -79.56 3.01 72.24 152.42 -42.33 16.75 
DOCKED: USER  keepresnum = 1 
DOCKED: USER  
DOCKED: REMARK  15 active torsions:
DOCKED: REMARK  status: ('A' for Active; 'I' for Inactive)
DOCKED: REMARK    1  A    between atoms: C1_1  and  O5_5 
DOCKED: REMARK    2  A    between atoms: O5_5  and  C6_6 
DOCKED: REMARK       I    between atoms: C6_6  and  N8_8 
DOCKED: REMARK    3  A    between atoms: N8_8  and  C9_10 
DOCKED: REMARK    4  A    between atoms: C9_10  and  C10_11 
DOCKED: REMARK    5  A    between atoms: C9_10  and  C17_18 
DOCKED: REMARK    6  A    between atoms: C10_11  and  C11_12 
DOCKED: REMARK    7  A    between atoms: C17_18  and  O18_19 
DOCKED: REMARK    8  A    between atoms: C17_18  and  C19_21 
DOCKED: REMARK    9  A    between atoms: C19_21  and  C20_22 
DOCKED: REMARK   10  A    between atoms: C20_22  and  C21_23 
DOCKED: REMARK   11  A    between atoms: C20_22  and  C28_30 
DOCKED: REMARK   12  A    between atoms: C21_23  and  C22_24 
DOCKED: REMARK       I    between atoms: C28_30  and  N30_32 
DOCKED: REMARK   13  A    between atoms: N30_32  and  C31_34 
DOCKED: REMARK   14  A    between atoms: C31_34  and  C32_35 
DOCKED: REMARK   15  A    between atoms: C31_34  and  C35_38 
DOCKED: USER                              x       y       z     vdW  Elec       q    Type
DOCKED: USER                           _______ _______ _______ _____ _____    ______ ____
DOCKED: ROOT
DOCKED: ATOM      1  C20 IM1 B 600      59.745   4.024  20.541 -0.31 -0.04    +0.084 C 
DOCKED: ENDROOT
DOCKED: BRANCH   1   2
DOCKED: ATOM      2  C19 IM1 B 600      58.632   3.142  20.104 -0.27 -0.02    +0.048 C 
DOCKED: BRANCH   2   3
DOCKED: ATOM      3  C17 IM1 B 600      58.181   1.999  21.013 -0.17 -0.03    +0.142 C 
DOCKED: BRANCH   3   4
DOCKED: ATOM      4  C9  IM1 B 600      56.830   1.469  20.545 -0.13 -0.03    +0.119 C 
DOCKED: BRANCH   4   5
DOCKED: ATOM      5  N8  IM1 B 600      57.000   0.605  19.419 -0.04 +0.16    -0.329 N 
DOCKED: ATOM      6  C6  IM1 B 600      56.127   0.412  18.448 -0.05 -0.16    +0.361 C 
DOCKED: ATOM      7  O7  IM1 B 600      55.053   1.015  18.469 -0.17 +0.06    -0.238 OA
DOCKED: ATOM      8  H8  IM1 B 600      57.878   0.091  19.360 -0.14 -0.14    +0.165 HD
DOCKED: BRANCH   6   9
DOCKED: ATOM      9  O5  IM1 B 600      56.450  -0.466  17.394 -0.06 +0.16    -0.294 OA
DOCKED: BRANCH   9  10
DOCKED: ATOM     10  C1  IM1 B 600      55.971  -0.581  16.055 -0.14 -0.03    +0.061 C 
DOCKED: ATOM     11  C2  IM1 B 600      55.922   0.823  15.433 -0.23 -0.05    +0.046 C 
DOCKED: ATOM     12  C3  IM1 B 600      54.533  -1.071  16.270 -0.11 -0.01    +0.046 C 
DOCKED: ATOM     13  C4  IM1 B 600      56.683  -1.424  14.969 -0.11 -0.02    +0.046 C 
DOCKED: ENDBRANCH   9  10
DOCKED: ENDBRANCH   6   9
DOCKED: ENDBRANCH   4   5
DOCKED: BRANCH   4  14
DOCKED: ATOM     14  C10 IM1 B 600      56.104   0.602  21.529 -0.08 -0.00    +0.066 C 
DOCKED: BRANCH  14  15
DOCKED: ATOM     15  C11 IM1 B 600      55.593   1.490  22.614 -0.12 +0.00    -0.056 A 
DOCKED: ATOM     16  C12 IM1 B 600      55.822   1.128  23.937 -0.11 +0.00    +0.007 A 
DOCKED: ATOM     17  C13 IM1 B 600      55.321   1.945  24.947 -0.18 -0.00    +0.001 A 
DOCKED: ATOM     18  C14 IM1 B 600      54.594   3.119  24.611 -0.29 -0.00    +0.000 A 
DOCKED: ATOM     19  C15 IM1 B 600      54.383   3.465  23.271 -0.30 +0.00    +0.001 A 
DOCKED: ATOM     20  C16 IM1 B 600      54.884   2.650  22.268 -0.28 +0.00    +0.007 A 
DOCKED: ENDBRANCH  14  15
DOCKED: ENDBRANCH   4  14
DOCKED: ENDBRANCH   3   4
DOCKED: BRANCH   3  21
DOCKED: ATOM     21  O18 IM1 B 600      58.973   0.813  20.978 -0.03 -0.03    -0.393 OA
DOCKED: ATOM     22  H18 IM1 B 600      59.367   0.879  20.115 -0.32 -0.20    +0.210 HD
DOCKED: ENDBRANCH   3  21
DOCKED: ENDBRANCH   2   3
DOCKED: ENDBRANCH   1   2
DOCKED: BRANCH   1  23
DOCKED: ATOM     23  C21 IM1 B 600      60.569   4.674  19.397 -0.30 -0.02    +0.052 C 
DOCKED: BRANCH  23  24
DOCKED: ATOM     24  C22 IM1 B 600      59.660   5.309  18.384 -0.31 +0.02    -0.057 A 
DOCKED: ATOM     25  C23 IM1 B 600      59.477   6.699  18.372 -0.34 -0.00    +0.007 A 
DOCKED: ATOM     26  C24 IM1 B 600      58.661   7.273  17.394 -0.41 -0.00    +0.001 A 
DOCKED: ATOM     27  C25 IM1 B 600      58.032   6.458  16.441 -0.50 -0.00    +0.000 A 
DOCKED: ATOM     28  C26 IM1 B 600      58.229   5.059  16.473 -0.52 -0.00    +0.001 A 
DOCKED: ATOM     29  C27 IM1 B 600      59.043   4.485  17.447 -0.43 -0.00    +0.007 A 
DOCKED: ENDBRANCH  23  24
DOCKED: ENDBRANCH   1  23
DOCKED: BRANCH   1  30
DOCKED: ATOM     30  C28 IM1 B 600      59.306   5.186  21.381 -0.18 -0.07    +0.222 C 
DOCKED: ATOM     31  O29 IM1 B 600      58.224   5.383  21.927 -0.19 +0.08    -0.273 OA
DOCKED: ATOM     32  N30 IM1 B 600      60.294   6.005  21.446 -0.07 +0.16    -0.349 N 
DOCKED: ATOM     33  H30 IM1 B 600      61.182   5.818  20.980 -0.35 -0.12    +0.163 HD
DOCKED: BRANCH  32  34
DOCKED: ATOM     34  C31 IM1 B 600      60.080   7.175  22.197 -0.26 -0.06    +0.155 C 
DOCKED: BRANCH  34  35
DOCKED: ATOM     35  C32 IM1 B 600      61.007   6.954  23.414 -0.38 -0.00    +0.007 C 
DOCKED: ATOM     36  C33 IM1 B 600      62.345   7.581  23.356 -0.49 -0.01    +0.012 C 
DOCKED: ATOM     37  C34 IM1 B 600      60.182   7.520  24.567 -0.59 -0.00    +0.012 C 
DOCKED: ENDBRANCH  34  35
DOCKED: BRANCH  34  38
DOCKED: ATOM     38  C35 IM1 B 600      60.361   8.237  21.188 -0.21 -0.06    +0.104 A 
DOCKED: ATOM     39  N36 IM1 B 600      61.395   8.464  20.458 -0.13 +0.32    -0.353 N 
DOCKED: ATOM     40  C37 IM1 B 600      61.157   9.732  20.009 -0.27 -0.10    +0.106 A 
DOCKED: ATOM     41  H36 IM1 B 600      62.189   7.855  20.264 -0.10 -0.21    +0.166 HD
DOCKED: ATOM     42  C38 IM1 B 600      59.953  10.180  20.513 -0.25 -0.05    +0.106 A 
DOCKED: ATOM     43  N39 IM1 B 600      59.458   9.171  21.281 -0.11 +0.11    -0.353 N 
DOCKED: ATOM     44  H39 IM1 B 600      58.584   9.150  21.806 +0.08 -0.00    +0.166 HD
DOCKED: ENDBRANCH  34  38
DOCKED: ENDBRANCH  32  34
DOCKED: ENDBRANCH   1  30
DOCKED: TORSDOF 15
DOCKED: TER
DOCKED: ENDMDL
________________________________________________________________________________


	BEGINNING GENETIC ALGORITHM DOCKING 3 of 10
Run: 3 Seed: 516676608 796766462 [ Run 3 of 10 GA/GALS ]
Beginning LAMARCKIAN GENETIC ALGORITHM (LGA), with a maximum of 2500000 energy evaluations.

Final-Value: -15.137


	FINAL GENETIC ALGORITHM DOCKED STATE
	_______________________________________________


Detailed state:  trans 58.609 2.683 20.381 quatxyzw 0.131904 -0.240788 -0.189589 0.942697 center 57.488 2.573 19.823 ntor 15 -113.4539 -20.2529 13.6846 172.7006 179.9454 93.8683 30.2876 -72.6885 -136.6430 -70.9904 -38.0410 43.9538 139.0936 -106.8871 -32.1370
State:	 58.609   2.683  20.381   0.395 -0.722 -0.568 38.981   -113.45  -20.25   13.68  172.70  179.95   93.87   30.29  -72.69 -136.64  -70.99  -38.04   43.95  139.09 -106.89  -32.14

DOCKED: MODEL        3
DOCKED: USER    Run = 3
DOCKED: USER    DPF = dock.dpf
DOCKED: USER  
DOCKED: USER    Estimated Free Energy of Binding    =   -6.56 kcal/mol  [=(1)+(2)+(3)-(4)]
DOCKED: USER    Estimated Inhibition Constant, Ki   =   15.48 uM (micromolar)  [Temperature = 298.15 K]
DOCKED: USER    
DOCKED: USER    (1) Final Intermolecular Energy     =  -11.04 kcal/mol
DOCKED: USER        vdW + Hbond + desolv Energy     =  -10.81 kcal/mol
DOCKED: USER        Electrostatic Energy            =   -0.22 kcal/mol
DOCKED: USER    (2) Final Total Internal Energy     =   -4.10 kcal/mol
DOCKED: USER    (3) Torsional Free Energy           =   +4.47 kcal/mol
DOCKED: USER    (4) Unbound System's Energy  [=(2)] =   -4.10 kcal/mol
DOCKED: USER    
DOCKED: USER    
DOCKED: USER    NEWDPF move lig1tcw.pdbqt
DOCKED: USER    NEWDPF about 57.488000 2.573000 19.823000
DOCKED: USER    NEWDPF tran0 58.609117 2.683297 20.380594
DOCKED: USER    NEWDPF quaternion0 0.131904 -0.240788 -0.189589 0.942697
DOCKED: USER    NEWDPF axisangle0 0.395337 -0.721682 -0.568228 38.980771
DOCKED: USER    NEWDPF quat0 0.395337 -0.721682 -0.568228 38.980771
DOCKED: USER    NEWDPF dihe0 -113.45 -20.25 13.68 172.70 179.95 93.87 30.29 -72.69 -136.64 -70.99 -38.04 43.95 139.09 -106.89 -32.14 
DOCKED: USER  keepresnum = 1 
DOCKED: USER  
DOCKED: REMARK  15 active torsions:
DOCKED: REMARK  status: ('A' for Active; 'I' for Inactive)
DOCKED: REMARK    1  A    between atoms: C1_1  and  O5_5 
DOCKED: REMARK    2  A    between atoms: O5_5  and  C6_6 
DOCKED: REMARK       I    between atoms: C6_6  and  N8_8 
DOCKED: REMARK    3  A    between atoms: N8_8  and  C9_10 
DOCKED: REMARK    4  A    between atoms: C9_10  and  C10_11 
DOCKED: REMARK    5  A    between atoms: C9_10  and  C17_18 
DOCKED: REMARK    6  A    between atoms: C10_11  and  C11_12 
DOCKED: REMARK    7  A    between atoms: C17_18  and  O18_19 
DOCKED: REMARK    8  A    between atoms: C17_18  and  C19_21 
DOCKED: REMARK    9  A    between atoms: C19_21  and  C20_22 
DOCKED: REMARK   10  A    between atoms: C20_22  and  C21_23 
DOCKED: REMARK   11  A    between atoms: C20_22  and  C28_30 
DOCKED: REMARK   12  A    between atoms: C21_23  and  C22_24 
DOCKED: REMARK       I    between atoms: C28_30  and  N30_32 
DOCKED: REMARK   13  A    between atoms: N30_32  and  C31_34 
DOCKED: REMARK   14  A    between atoms: C31_34  and  C32_35 
DOCKED: REMARK   15  A    between atoms: C31_34  and  C35_38 
DOCKED: USER                              x       y       z     vdW  Elec       q    Type
DOCKED: USER                           _______ _______ _______ _____ _____    ______ ____
DOCKED: ROOT
DOCKED: ATOM      1  C20 IM1 B 600      59.199   3.904  20.388 -0.28 -0.04    +0.084 C 
DOCKED: ENDROOT
DOCKED: BRANCH   1   2
DOCKED: ATOM      2  C19 IM1 B 600      59.136   2.432  20.192 -0.21 -0.03    +0.048 C 
DOCKED: BRANCH   2   3
DOCKED: ATOM      3  C17 IM1 B 600      58.200   1.600  21.069 -0.16 -0.03    +0.142 C 
DOCKED: BRANCH   3   4
DOCKED: ATOM      4  C9  IM1 B 600      56.931   1.261  20.294 -0.13 -0.03    +0.119 C 
DOCKED: BRANCH   4   5
DOCKED: ATOM      5  N8  IM1 B 600      57.237   0.405  19.192 -0.05 +0.20    -0.329 N 
DOCKED: ATOM      6  C6  IM1 B 600      56.688   0.454  17.992 -0.07 -0.24    +0.361 C 
DOCKED: ATOM      7  O7  IM1 B 600      55.831   1.304  17.752 -0.18 +0.12    -0.238 OA
DOCKED: ATOM      8  H8  IM1 B 600      57.947  -0.312  19.347 -0.16 -0.13    +0.165 HD
DOCKED: BRANCH   6   9
DOCKED: ATOM      9  O5  IM1 B 600      57.110  -0.457  17.003 -0.09 +0.23    -0.294 OA
DOCKED: BRANCH   9  10
DOCKED: ATOM     10  C1  IM1 B 600      56.943  -0.485  15.587 -0.19 -0.05    +0.061 C 
DOCKED: ATOM     11  C2  IM1 B 600      56.499  -1.898  15.177 -0.07 -0.02    +0.046 C 
DOCKED: ATOM     12  C3  IM1 B 600      58.377  -0.260  15.089 -0.17 -0.06    +0.046 C 
DOCKED: ATOM     13  C4  IM1 B 600      55.950   0.431  14.831 -0.26 -0.04    +0.046 C 
DOCKED: ENDBRANCH   9  10
DOCKED: ENDBRANCH   6   9
DOCKED: ENDBRANCH   4   5
DOCKED: BRANCH   4  14
DOCKED: ATOM     14  C10 IM1 B 600      55.904   0.479  21.055 -0.08 -0.01    +0.066 C 
DOCKED: BRANCH  14  15
DOCKED: ATOM     15  C11 IM1 B 600      54.572   0.789  20.457 -0.14 +0.00    -0.056 A 
DOCKED: ATOM     16  C12 IM1 B 600      53.991   2.023  20.724 -0.28 -0.00    +0.007 A 
DOCKED: ATOM     17  C13 IM1 B 600      52.737   2.299  20.187 -0.25 -0.00    +0.001 A 
DOCKED: ATOM     18  C14 IM1 B 600      52.083   1.326  19.384 -0.31 -0.00    +0.000 A 
DOCKED: ATOM     19  C15 IM1 B 600      52.693   0.092  19.124 -0.21 -0.00    +0.001 A 
DOCKED: ATOM     20  C16 IM1 B 600      53.942  -0.178  19.660 -0.11 -0.00    +0.007 A 
DOCKED: ENDBRANCH  14  15
DOCKED: ENDBRANCH   4  14
DOCKED: ENDBRANCH   3   4
DOCKED: BRANCH   3  21
DOCKED: ATOM     21  O18 IM1 B 600      58.663   0.299  21.428 -0.36 -0.15    -0.393 OA
DOCKED: ATOM     22  H18 IM1 B 600      58.885  -0.060  20.577 -0.07 +0.05    +0.210 HD
DOCKED: ENDBRANCH   3  21
DOCKED: ENDBRANCH   2   3
DOCKED: ENDBRANCH   1   2
DOCKED: BRANCH   1  23
DOCKED: ATOM     23  C21 IM1 B 600      60.451   4.422  21.147 -0.33 -0.02    +0.052 C 
DOCKED: BRANCH  23  24
DOCKED: ATOM     24  C22 IM1 B 600      60.059   5.439  22.181 -0.25 +0.02    -0.057 A 
DOCKED: ATOM     25  C23 IM1 B 600      58.985   5.191  23.047 -0.35 -0.00    +0.007 A 
DOCKED: ATOM     26  C24 IM1 B 600      58.666   6.131  24.028 -0.41 -0.00    +0.001 A 
DOCKED: ATOM     27  C25 IM1 B 600      59.417   7.311  24.137 -0.51 -0.00    +0.000 A 
DOCKED: ATOM     28  C26 IM1 B 600      60.494   7.543  23.252 -0.37 -0.00    +0.001 A 
DOCKED: ATOM     29  C27 IM1 B 600      60.814   6.605  22.273 -0.28 -0.00    +0.007 A 
DOCKED: ENDBRANCH  23  24
DOCKED: ENDBRANCH   1  23
DOCKED: BRANCH   1  30
DOCKED: ATOM     30  C28 IM1 B 600      59.197   4.689  19.110 -0.26 -0.10    +0.222 C 
DOCKED: ATOM     31  O29 IM1 B 600      59.398   4.302  17.962 -0.83 +0.13    -0.273 OA
DOCKED: ATOM     32  N30 IM1 B 600      58.940   5.911  19.412 -0.10 +0.16    -0.349 N 
DOCKED: ATOM     33  H30 IM1 B 600      58.778   6.206  20.375 +0.00 -0.07    +0.163 HD
DOCKED: BRANCH  32  34
DOCKED: ATOM     34  C31 IM1 B 600      58.894   6.818  18.338 -0.30 -0.06    +0.155 C 
DOCKED: BRANCH  34  35
DOCKED: ATOM     35  C32 IM1 B 600      57.600   6.392  17.608 -0.48 -0.00    +0.007 C 
DOCKED: ATOM     36  C33 IM1 B 600      56.417   7.262  17.785 -0.49 -0.00    +0.012 C 
DOCKED: ATOM     37  C34 IM1 B 600      58.040   6.351  16.147 -0.56 -0.01    +0.012 C 
DOCKED: ENDBRANCH  34  35
DOCKED: BRANCH  34  38
DOCKED: ATOM     38  C35 IM1 B 600      58.993   8.128  19.045 -0.27 -0.04    +0.104 A 
DOCKED: ATOM     39  N36 IM1 B 600      59.803   9.114  18.898 -0.12 +0.20    -0.353 N 
DOCKED: ATOM     40  C37 IM1 B 600      59.580   9.842  20.032 -0.26 -0.05    +0.106 A 
DOCKED: ATOM     41  H36 IM1 B 600      60.448   9.305  18.132 +0.10 -0.13    +0.166 HD
DOCKED: ATOM     42  C38 IM1 B 600      58.612   9.220  20.794 -0.30 -0.02    +0.106 A 
DOCKED: ATOM     43  N39 IM1 B 600      58.249   8.099  20.113 -0.15 +0.13    -0.353 N 
DOCKED: ATOM     44  H39 IM1 B 600      57.555   7.399  20.377 -0.50 -0.10    +0.166 HD
DOCKED: ENDBRANCH  34  38
DOCKED: ENDBRANCH  32  34
DOCKED: ENDBRANCH   1  30
DOCKED: TORSDOF 15
DOCKED: TER
DOCKED: ENDMDL
________________________________________________________________________________


	BEGINNING GENETIC ALGORITHM DOCKING 4 of 10
Run: 4 Seed: 1617566464 1551566990 [ Run 4 of 10 GA/GALS ]
Beginning LAMARCKIAN GENETIC ALGORITHM (LGA), with a maximum of 2500000 energy evaluations.

Final-Value: -13.932


	FINAL GENETIC ALGORITHM DOCKED STATE
	_______________________________________________


Detailed state:  trans 58.131 3.866 20.407 quatxyzw -0.661467 0.744094 0.051636 -0.078224 center 57.488 2.573 19.823 ntor 15 -138.7945 -80.9292 14.2662 -138.4199 28.6375 -32.6648 38.8232 -180.0000 -138.1233 -20.9151 49.3327 -137.6254 116.4816 39.9984 37.7065
State:	 58.131   3.866  20.407  -0.664  0.746  0.052 -171.027   -138.79  -80.93   14.27 -138.42   28.64  -32.66   38.82 -180.00 -138.12  -20.92   49.33 -137.63  116.48   40.00   37.71

DOCKED: MODEL        4
DOCKED: USER    Run = 4
DOCKED: USER    DPF = dock.dpf
DOCKED: USER  
DOCKED: USER    Estimated Free Energy of Binding    =   -5.75 kcal/mol  [=(1)+(2)+(3)-(4)]
DOCKED: USER    Estimated Inhibition Constant, Ki   =   61.40 uM (micromolar)  [Temperature = 298.15 K]
DOCKED: USER    
DOCKED: USER    (1) Final Intermolecular Energy     =  -10.22 kcal/mol
DOCKED: USER        vdW + Hbond + desolv Energy     =  -10.07 kcal/mol
DOCKED: USER        Electrostatic Energy            =   -0.15 kcal/mol
DOCKED: USER    (2) Final Total Internal Energy     =   -3.71 kcal/mol
DOCKED: USER    (3) Torsional Free Energy           =   +4.47 kcal/mol
DOCKED: USER    (4) Unbound System's Energy  [=(2)] =   -3.71 kcal/mol
DOCKED: USER    
DOCKED: USER    
DOCKED: USER    NEWDPF move lig1tcw.pdbqt
DOCKED: USER    NEWDPF about 57.488000 2.573000 19.823000
DOCKED: USER    NEWDPF tran0 58.131382 3.865905 20.407096
DOCKED: USER    NEWDPF quaternion0 -0.661467 0.744094 0.051636 -0.078224
DOCKED: USER    NEWDPF axisangle0 -0.663501 0.746381 0.051795 -171.026973
DOCKED: USER    NEWDPF quat0 -0.663501 0.746381 0.051795 -171.026973
DOCKED: USER    NEWDPF dihe0 -138.79 -80.93 14.27 -138.42 28.64 -32.66 38.82 -180.00 -138.12 -20.92 49.33 -137.63 116.48 40.00 37.71 
DOCKED: USER  keepresnum = 1 
DOCKED: USER  
DOCKED: REMARK  15 active torsions:
DOCKED: REMARK  status: ('A' for Active; 'I' for Inactive)
DOCKED: REMARK    1  A    between atoms: C1_1  and  O5_5 
DOCKED: REMARK    2  A    between atoms: O5_5  and  C6_6 
DOCKED: REMARK       I    between atoms: C6_6  and  N8_8 
DOCKED: REMARK    3  A    between atoms: N8_8  and  C9_10 
DOCKED: REMARK    4  A    between atoms: C9_10  and  C10_11 
DOCKED: REMARK    5  A    between atoms: C9_10  and  C17_18 
DOCKED: REMARK    6  A    between atoms: C10_11  and  C11_12 
DOCKED: REMARK    7  A    between atoms: C17_18  and  O18_19 
DOCKED: REMARK    8  A    between atoms: C17_18  and  C19_21 
DOCKED: REMARK    9  A    between atoms: C19_21  and  C20_22 
DOCKED: REMARK   10  A    between atoms: C20_22  and  C21_23 
DOCKED: REMARK   11  A    between atoms: C20_22  and  C28_30 
DOCKED: REMARK   12  A    between atoms: C21_23  and  C22_24 
DOCKED: REMARK       I    between atoms: C28_30  and  N30_32 
DOCKED: REMARK   13  A    between atoms: N30_32  and  C31_34 
DOCKED: REMARK   14  A    between atoms: C31_34  and  C32_35 
DOCKED: REMARK   15  A    between atoms: C31_34  and  C35_38 
DOCKED: USER                              x       y       z     vdW  Elec       q    Type
DOCKED: USER                           _______ _______ _______ _____ _____    ______ ____
DOCKED: ROOT
DOCKED: ATOM      1  C20 IM1 B 600      57.234   3.271  19.583 -0.28 -0.03    +0.084 C 
DOCKED: ENDROOT
DOCKED: BRANCH   1   2
DOCKED: ATOM      2  C19 IM1 B 600      58.492   3.372  20.368 -0.27 -0.02    +0.048 C 
DOCKED: BRANCH   2   3
DOCKED: ATOM      3  C17 IM1 B 600      58.466   4.042  21.741 -0.21 -0.03    +0.142 C 
DOCKED: BRANCH   3   4
DOCKED: ATOM      4  C9  IM1 B 600      59.246   5.352  21.692 -0.24 -0.04    +0.119 C 
DOCKED: BRANCH   4   5
DOCKED: ATOM      5  N8  IM1 B 600      58.936   6.069  20.496 -0.09 +0.14    -0.329 N 
DOCKED: ATOM      6  C6  IM1 B 600      59.585   5.988  19.349 -0.16 -0.16    +0.361 C 
DOCKED: ATOM      7  O7  IM1 B 600      60.552   5.232  19.252 -0.60 +0.10    -0.238 OA
DOCKED: ATOM      8  H8  IM1 B 600      58.138   6.704  20.532 -0.38 -0.09    +0.165 HD
DOCKED: BRANCH   6   9
DOCKED: ATOM      9  O5  IM1 B 600      59.145   6.754  18.251 -0.20 +0.12    -0.294 OA
DOCKED: BRANCH   9  10
DOCKED: ATOM     10  C1  IM1 B 600      58.614   6.394  16.978 -0.50 -0.03    +0.061 C 
DOCKED: ATOM     11  C2  IM1 B 600      59.339   7.213  15.899 -0.58 -0.02    +0.046 C 
DOCKED: ATOM     12  C3  IM1 B 600      57.167   6.895  17.081 -0.48 -0.02    +0.046 C 
DOCKED: ATOM     13  C4  IM1 B 600      58.658   4.952  16.417 -0.54 -0.03    +0.046 C 
DOCKED: ENDBRANCH   9  10
DOCKED: ENDBRANCH   6   9
DOCKED: ENDBRANCH   4   5
DOCKED: BRANCH   4  14
DOCKED: ATOM     14  C10 IM1 B 600      58.916   6.336  22.772 -0.32 -0.01    +0.066 C 
DOCKED: BRANCH  14  15
DOCKED: ATOM     15  C11 IM1 B 600      60.037   7.319  22.839 -0.30 +0.02    -0.056 A 
DOCKED: ATOM     16  C12 IM1 B 600      59.734   8.675  22.913 -0.36 -0.00    +0.007 A 
DOCKED: ATOM     17  C13 IM1 B 600      60.782   9.590  22.948 -0.34 -0.00    +0.001 A 
DOCKED: ATOM     18  C14 IM1 B 600      62.125   9.129  22.909 -0.37 -0.00    +0.000 A 
DOCKED: ATOM     19  C15 IM1 B 600      62.404   7.758  22.841 -0.40 -0.00    +0.001 A 
DOCKED: ATOM     20  C16 IM1 B 600      61.358   6.849  22.807 -0.33 -0.00    +0.007 A 
DOCKED: ENDBRANCH  14  15
DOCKED: ENDBRANCH   4  14
DOCKED: ENDBRANCH   3   4
DOCKED: BRANCH   3  21
DOCKED: ATOM     21  O18 IM1 B 600      57.192   4.495  22.199 -0.12 +0.08    -0.393 OA
DOCKED: ATOM     22  H18 IM1 B 600      57.089   5.296  21.698 -0.08 -0.12    +0.210 HD
DOCKED: ENDBRANCH   3  21
DOCKED: ENDBRANCH   2   3
DOCKED: ENDBRANCH   1   2
DOCKED: BRANCH   1  23
DOCKED: ATOM     23  C21 IM1 B 600      57.392   2.721  18.139 -0.35 -0.04    +0.052 C 
DOCKED: BRANCH  23  24
DOCKED: ATOM     24  C22 IM1 B 600      56.634   1.434  17.977 -0.22 +0.04    -0.057 A 
DOCKED: ATOM     25  C23 IM1 B 600      57.178   0.229  18.446 -0.12 -0.01    +0.007 A 
DOCKED: ATOM     26  C24 IM1 B 600      56.437  -0.948  18.324 -0.06 -0.00    +0.001 A 
DOCKED: ATOM     27  C25 IM1 B 600      55.165  -0.916  17.733 -0.07 -0.00    +0.000 A 
DOCKED: ATOM     28  C26 IM1 B 600      54.638   0.308  17.265 -0.21 -0.00    +0.001 A 
DOCKED: ATOM     29  C27 IM1 B 600      55.374   1.484  17.388 -0.15 -0.00    +0.007 A 
DOCKED: ENDBRANCH  23  24
DOCKED: ENDBRANCH   1  23
DOCKED: BRANCH   1  30
DOCKED: ATOM     30  C28 IM1 B 600      56.200   2.379  20.202 -0.18 -0.04    +0.222 C 
DOCKED: ATOM     31  O29 IM1 B 600      54.998   2.303  19.963 -0.61 -0.00    -0.273 OA
DOCKED: ATOM     32  N30 IM1 B 600      56.795   1.658  21.084 -0.03 +0.05    -0.349 N 
DOCKED: ATOM     33  H30 IM1 B 600      57.796   1.743  21.264 +0.06 -0.02    +0.163 HD
DOCKED: BRANCH  32  34
DOCKED: ATOM     34  C31 IM1 B 600      55.987   0.745  21.786 -0.06 -0.01    +0.155 C 
DOCKED: BRANCH  34  35
DOCKED: ATOM     35  C32 IM1 B 600      57.021  -0.296  22.272 -0.09 +0.00    +0.007 C 
DOCKED: ATOM     36  C33 IM1 B 600      58.286   0.230  22.829 -0.14 +0.00    +0.012 C 
DOCKED: ATOM     37  C34 IM1 B 600      56.237  -1.075  23.325 -0.03 +0.00    +0.012 C 
DOCKED: ENDBRANCH  34  35
DOCKED: BRANCH  34  38
DOCKED: ATOM     38  C35 IM1 B 600      55.279   1.644  22.743 -0.13 -0.00    +0.104 A 
DOCKED: ATOM     39  N36 IM1 B 600      54.027   1.838  22.960 -0.10 +0.01    -0.353 N 
DOCKED: ATOM     40  C37 IM1 B 600      54.037   2.985  23.701 -0.22 +0.00    +0.106 A 
DOCKED: ATOM     41  H36 IM1 B 600      53.230   1.278  22.657 +0.04 -0.00    +0.166 HD
DOCKED: ATOM     42  C38 IM1 B 600      55.340   3.401  23.886 -0.26 +0.00    +0.106 A 
DOCKED: ATOM     43  N39 IM1 B 600      56.127   2.495  23.245 -0.07 +0.00    -0.353 N 
DOCKED: ATOM     44  H39 IM1 B 600      57.145   2.484  23.175 +0.07 -0.00    +0.166 HD
DOCKED: ENDBRANCH  34  38
DOCKED: ENDBRANCH  32  34
DOCKED: ENDBRANCH   1  30
DOCKED: TORSDOF 15
DOCKED: TER
DOCKED: ENDMDL
________________________________________________________________________________


	BEGINNING GENETIC ALGORITHM DOCKING 5 of 10
Run: 5 Seed: 1118903979 730340491 [ Run 5 of 10 GA/GALS ]
Beginning LAMARCKIAN GENETIC ALGORITHM (LGA), with a maximum of 2500000 energy evaluations.

Final-Value: -11.263


	FINAL GENETIC ALGORITHM DOCKED STATE
	_______________________________________________


Detailed state:  trans 55.749 3.665 21.418 quatxyzw 0.685214 -0.585428 -0.280735 -0.330066 center 57.488 2.573 19.823 ntor 15 110.2831 -143.0488 11.3336 -99.4264 -72.4313 126.3653 -41.5040 87.0353 50.8214 21.2417 -13.6467 59.6540 -24.3700 -85.4273 94.4708
State:	 55.749   3.665  21.418   0.726 -0.620 -0.297 -141.454    110.28 -143.05   11.33  -99.43  -72.43  126.37  -41.50   87.04   50.82   21.24  -13.65   59.65  -24.37  -85.43   94.47

DOCKED: MODEL        5
DOCKED: USER    Run = 5
DOCKED: USER    DPF = dock.dpf
DOCKED: USER  
DOCKED: USER    Estimated Free Energy of Binding    =   -2.29 kcal/mol  [=(1)+(2)+(3)-(4)]
DOCKED: USER    Estimated Inhibition Constant, Ki   =   20.86 mM (millimolar)  [Temperature = 298.15 K]
DOCKED: USER    
DOCKED: USER    (1) Final Intermolecular Energy     =   -6.77 kcal/mol
DOCKED: USER        vdW + Hbond + desolv Energy     =   -6.62 kcal/mol
DOCKED: USER        Electrostatic Energy            =   -0.15 kcal/mol
DOCKED: USER    (2) Final Total Internal Energy     =   -4.50 kcal/mol
DOCKED: USER    (3) Torsional Free Energy           =   +4.47 kcal/mol
DOCKED: USER    (4) Unbound System's Energy  [=(2)] =   -4.50 kcal/mol
DOCKED: USER    
DOCKED: USER    
DOCKED: USER    NEWDPF move lig1tcw.pdbqt
DOCKED: USER    NEWDPF about 57.488000 2.573000 19.823000
DOCKED: USER    NEWDPF tran0 55.748920 3.665044 21.418193
DOCKED: USER    NEWDPF quaternion0 0.685214 -0.585428 -0.280735 -0.330066
DOCKED: USER    NEWDPF axisangle0 0.725895 -0.620185 -0.297402 -141.454432
DOCKED: USER    NEWDPF quat0 0.725895 -0.620185 -0.297402 -141.454432
DOCKED: USER    NEWDPF dihe0 110.28 -143.05 11.33 -99.43 -72.43 126.37 -41.50 87.04 50.82 21.24 -13.65 59.65 -24.37 -85.43 94.47 
DOCKED: USER  keepresnum = 1 
DOCKED: USER  
DOCKED: REMARK  15 active torsions:
DOCKED: REMARK  status: ('A' for Active; 'I' for Inactive)
DOCKED: REMARK    1  A    between atoms: C1_1  and  O5_5 
DOCKED: REMARK    2  A    between atoms: O5_5  and  C6_6 
DOCKED: REMARK       I    between atoms: C6_6  and  N8_8 
DOCKED: REMARK    3  A    between atoms: N8_8  and  C9_10 
DOCKED: REMARK    4  A    between atoms: C9_10  and  C10_11 
DOCKED: REMARK    5  A    between atoms: C9_10  and  C17_18 
DOCKED: REMARK    6  A    between atoms: C10_11  and  C11_12 
DOCKED: REMARK    7  A    between atoms: C17_18  and  O18_19 
DOCKED: REMARK    8  A    between atoms: C17_18  and  C19_21 
DOCKED: REMARK    9  A    between atoms: C19_21  and  C20_22 
DOCKED: REMARK   10  A    between atoms: C20_22  and  C21_23 
DOCKED: REMARK   11  A    between atoms: C20_22  and  C28_30 
DOCKED: REMARK   12  A    between atoms: C21_23  and  C22_24 
DOCKED: REMARK       I    between atoms: C28_30  and  N30_32 
DOCKED: REMARK   13  A    between atoms: N30_32  and  C31_34 
DOCKED: REMARK   14  A    between atoms: C31_34  and  C32_35 
DOCKED: REMARK   15  A    between atoms: C31_34  and  C35_38 
DOCKED: USER                              x       y       z     vdW  Elec       q    Type
DOCKED: USER                           _______ _______ _______ _____ _____    ______ ____
DOCKED: ROOT
DOCKED: ATOM      1  C20 IM1 B 600      54.853   2.679  21.665 -0.25 +0.00    +0.084 C 
DOCKED: ENDROOT
DOCKED: BRANCH   1   2
DOCKED: ATOM      2  C19 IM1 B 600      56.101   3.266  21.115 -0.17 -0.00    +0.048 C 
DOCKED: BRANCH   2   3
DOCKED: ATOM      3  C17 IM1 B 600      57.397   3.156  21.918 -0.20 -0.02    +0.142 C 
DOCKED: BRANCH   3   4
DOCKED: ATOM      4  C9  IM1 B 600      58.463   2.450  21.086 -0.20 -0.03    +0.119 C 
DOCKED: BRANCH   4   5
DOCKED: ATOM      5  N8  IM1 B 600      58.530   1.067  21.436 -0.07 -0.02    -0.329 N 
DOCKED: ATOM      6  C6  IM1 B 600      58.618   0.577  22.659 -0.02 +0.16    +0.361 C 
DOCKED: ATOM      7  O7  IM1 B 600      58.643   1.347  23.620 -0.16 -0.06    -0.238 OA
DOCKED: ATOM      8  H8  IM1 B 600      58.508   0.395  20.669 -0.03 -0.02    +0.165 HD
DOCKED: BRANCH   6   9
DOCKED: ATOM      9  O5  IM1 B 600      58.663  -0.820  22.842 -0.58 -0.24    -0.294 OA
DOCKED: BRANCH   9  10
DOCKED: ATOM     10  C1  IM1 B 600      57.657  -1.830  22.789 -0.07 +0.02    +0.061 C 
DOCKED: ATOM     11  C2  IM1 B 600      57.854  -2.776  23.983 -0.04 +0.01    +0.046 C 
DOCKED: ATOM     12  C3  IM1 B 600      58.026  -2.582  21.503 -0.08 +0.01    +0.046 C 
DOCKED: ATOM     13  C4  IM1 B 600      56.141  -1.520  22.828 -0.01 +0.00    +0.046 C 
DOCKED: ENDBRANCH   9  10
DOCKED: ENDBRANCH   6   9
DOCKED: ENDBRANCH   4   5
DOCKED: BRANCH   4  14
DOCKED: ATOM     14  C10 IM1 B 600      58.204   2.413  19.610 -0.23 -0.04    +0.066 C 
DOCKED: BRANCH  14  15
DOCKED: ATOM     15  C11 IM1 B 600      58.641   3.724  19.046 -0.29 +0.03    -0.056 A 
DOCKED: ATOM     16  C12 IM1 B 600      59.725   4.373  19.626 -0.34 -0.00    +0.007 A 
DOCKED: ATOM     17  C13 IM1 B 600      60.113   5.608  19.115 -0.31 -0.00    +0.001 A 
DOCKED: ATOM     18  C14 IM1 B 600      59.404   6.176  18.023 -0.38 -0.00    +0.000 A 
DOCKED: ATOM     19  C15 IM1 B 600      58.319   5.499  17.452 -0.46 -0.00    +0.001 A 
DOCKED: ATOM     20  C16 IM1 B 600      57.936   4.269  17.963 -0.41 -0.00    +0.007 A 
DOCKED: ENDBRANCH  14  15
DOCKED: ENDBRANCH   4  14
DOCKED: ENDBRANCH   3   4
DOCKED: BRANCH   3  21
DOCKED: ATOM     21  O18 IM1 B 600      58.055   4.384  22.228 -0.12 +0.08    -0.393 OA
DOCKED: ATOM     22  H18 IM1 B 600      58.729   4.087  22.828 +0.11 -0.02    +0.210 HD
DOCKED: ENDBRANCH   3  21
DOCKED: ENDBRANCH   2   3
DOCKED: ENDBRANCH   1   2
DOCKED: BRANCH   1  23
DOCKED: ATOM     23  C21 IM1 B 600      54.066   1.756  20.694 -0.30 -0.00    +0.052 C 
DOCKED: BRANCH  23  24
DOCKED: ATOM     24  C22 IM1 B 600      54.983   1.179  19.653 -0.19 +0.01    -0.057 A 
DOCKED: ATOM     25  C23 IM1 B 600      55.805   0.086  19.962 -0.07 -0.00    +0.007 A 
DOCKED: ATOM     26  C24 IM1 B 600      56.616  -0.462  18.967 -0.08 -0.00    +0.001 A 
DOCKED: ATOM     27  C25 IM1 B 600      56.606   0.086  17.675 -0.15 -0.00    +0.000 A 
DOCKED: ATOM     28  C26 IM1 B 600      55.772   1.189  17.386 -0.24 -0.00    +0.001 A 
DOCKED: ATOM     29  C27 IM1 B 600      54.960   1.735  18.377 -0.25 -0.00    +0.007 A 
DOCKED: ENDBRANCH  23  24
DOCKED: ENDBRANCH   1  23
DOCKED: BRANCH   1  30
DOCKED: ATOM     30  C28 IM1 B 600      55.064   1.830  22.883 -0.14 -0.00    +0.222 C 
DOCKED: ATOM     31  O29 IM1 B 600      56.108   1.574  23.478 -0.07 -0.00    -0.273 OA
DOCKED: ATOM     32  N30 IM1 B 600      53.916   1.376  23.237 -0.07 +0.01    -0.349 N 
DOCKED: ATOM     33  H30 IM1 B 600      53.064   1.603  22.723 +0.05 -0.00    +0.163 HD
DOCKED: BRANCH  32  34
DOCKED: ATOM     34  C31 IM1 B 600      53.901   0.547  24.373 -0.09 -0.00    +0.155 C 
DOCKED: BRANCH  34  35
DOCKED: ATOM     35  C32 IM1 B 600      53.572   1.549  25.503 -0.18 -0.00    +0.007 C 
DOCKED: ATOM     36  C33 IM1 B 600      53.789   2.982  25.208 -0.30 -0.00    +0.012 C 
DOCKED: ATOM     37  C34 IM1 B 600      52.099   1.261  25.783 -0.08 -0.00    +0.012 C 
DOCKED: ENDBRANCH  34  35
DOCKED: BRANCH  34  38
DOCKED: ATOM     38  C35 IM1 B 600      52.930  -0.510  23.963 -0.06 -0.00    +0.104 A 
DOCKED: ATOM     39  N36 IM1 B 600      51.769  -0.432  23.419 -0.05 +0.01    -0.353 N 
DOCKED: ATOM     40  C37 IM1 B 600      51.281  -1.695  23.600 -0.04 -0.00    +0.106 A 
DOCKED: ATOM     41  H36 IM1 B 600      51.325   0.367  22.967 +0.03 -0.00    +0.166 HD
DOCKED: ATOM     42  C38 IM1 B 600      52.224  -2.463  24.253 -0.01 -0.00    +0.106 A 
DOCKED: ATOM     43  N39 IM1 B 600      53.294  -1.651  24.473 -0.00 +0.00    -0.353 N 
DOCKED: ATOM     44  H39 IM1 B 600      54.176  -1.883  24.930 +0.01 +0.00    +0.166 HD
DOCKED: ENDBRANCH  34  38
DOCKED: ENDBRANCH  32  34
DOCKED: ENDBRANCH   1  30
DOCKED: TORSDOF 15
DOCKED: TER
DOCKED: ENDMDL
________________________________________________________________________________


	BEGINNING GENETIC ALGORITHM DOCKING 6 of 10
Run: 6 Seed: 1990030633 1623817988 [ Run 6 of 10 GA/GALS ]
Beginning LAMARCKIAN GENETIC ALGORITHM (LGA), with a maximum of 2500000 energy evaluations.

Final-Value: -16.255


	FINAL GENETIC ALGORITHM DOCKED STATE
	_______________________________________________


Detailed state:  trans 59.568 2.981 20.219 quatxyzw -0.052167 -0.491147 -0.859138 -0.133925 center 57.488 2.573 19.823 ntor 15 59.1583 -122.3451 -179.8586 55.9355 -14.4980 -94.3079 -71.5074 -26.4197 48.0388 -61.5342 22.1913 -151.2350 158.3665 -1.8601 -153.8540
State:	 59.568   2.981  20.219  -0.053 -0.496 -0.867 -164.607     59.16 -122.35 -179.86   55.94  -14.50  -94.31  -71.51  -26.42   48.04  -61.53   22.19 -151.24  158.37   -1.86 -153.85

DOCKED: MODEL        6
DOCKED: USER    Run = 6
DOCKED: USER    DPF = dock.dpf
DOCKED: USER  
DOCKED: USER    Estimated Free Energy of Binding    =   -5.35 kcal/mol  [=(1)+(2)+(3)-(4)]
DOCKED: USER    Estimated Inhibition Constant, Ki   =  120.29 uM (micromolar)  [Temperature = 298.15 K]
DOCKED: USER    
DOCKED: USER    (1) Final Intermolecular Energy     =   -9.82 kcal/mol
DOCKED: USER        vdW + Hbond + desolv Energy     =   -9.75 kcal/mol
DOCKED: USER        Electrostatic Energy            =   -0.07 kcal/mol
DOCKED: USER    (2) Final Total Internal Energy     =   -6.43 kcal/mol
DOCKED: USER    (3) Torsional Free Energy           =   +4.47 kcal/mol
DOCKED: USER    (4) Unbound System's Energy  [=(2)] =   -6.43 kcal/mol
DOCKED: USER    
DOCKED: USER    
DOCKED: USER    NEWDPF move lig1tcw.pdbqt
DOCKED: USER    NEWDPF about 57.488000 2.573000 19.823000
DOCKED: USER    NEWDPF tran0 59.567672 2.980857 20.219261
DOCKED: USER    NEWDPF quaternion0 -0.052167 -0.491147 -0.859138 -0.133925
DOCKED: USER    NEWDPF axisangle0 -0.052642 -0.495612 -0.866948 -164.607090
DOCKED: USER    NEWDPF quat0 -0.052642 -0.495612 -0.866948 -164.607090
DOCKED: USER    NEWDPF dihe0 59.16 -122.35 -179.86 55.94 -14.50 -94.31 -71.51 -26.42 48.04 -61.53 22.19 -151.24 158.37 -1.86 -153.85 
DOCKED: USER  keepresnum = 1 
DOCKED: USER  
DOCKED: REMARK  15 active torsions:
DOCKED: REMARK  status: ('A' for Active; 'I' for Inactive)
DOCKED: REMARK    1  A    between atoms: C1_1  and  O5_5 
DOCKED: REMARK    2  A    between atoms: O5_5  and  C6_6 
DOCKED: REMARK       I    between atoms: C6_6  and  N8_8 
DOCKED: REMARK    3  A    between atoms: N8_8  and  C9_10 
DOCKED: REMARK    4  A    between atoms: C9_10  and  C10_11 
DOCKED: REMARK    5  A    between atoms: C9_10  and  C17_18 
DOCKED: REMARK    6  A    between atoms: C10_11  and  C11_12 
DOCKED: REMARK    7  A    between atoms: C17_18  and  O18_19 
DOCKED: REMARK    8  A    between atoms: C17_18  and  C19_21 
DOCKED: REMARK    9  A    between atoms: C19_21  and  C20_22 
DOCKED: REMARK   10  A    between atoms: C20_22  and  C21_23 
DOCKED: REMARK   11  A    between atoms: C20_22  and  C28_30 
DOCKED: REMARK   12  A    between atoms: C21_23  and  C22_24 
DOCKED: REMARK       I    between atoms: C28_30  and  N30_32 
DOCKED: REMARK   13  A    between atoms: N30_32  and  C31_34 
DOCKED: REMARK   14  A    between atoms: C31_34  and  C32_35 
DOCKED: REMARK   15  A    between atoms: C31_34  and  C35_38 
DOCKED: USER                              x       y       z     vdW  Elec       q    Type
DOCKED: USER                           _______ _______ _______ _____ _____    ______ ____
DOCKED: ROOT
DOCKED: ATOM      1  C20 IM1 B 600      58.977   2.992  21.439 -0.23 -0.02    +0.084 C 
DOCKED: ENDROOT
DOCKED: BRANCH   1   2
DOCKED: ATOM      2  C19 IM1 B 600      59.022   3.073  19.956 -0.28 -0.03    +0.048 C 
DOCKED: BRANCH   2   3
DOCKED: ATOM      3  C17 IM1 B 600      57.952   3.878  19.218 -0.28 -0.07    +0.142 C 
DOCKED: BRANCH   3   4
DOCKED: ATOM      4  C9  IM1 B 600      57.780   3.334  17.804 -0.36 -0.10    +0.119 C 
DOCKED: BRANCH   4   5
DOCKED: ATOM      5  N8  IM1 B 600      56.872   2.231  17.804 -0.16 +0.25    -0.329 N 
DOCKED: ATOM      6  C6  IM1 B 600      57.062   1.066  17.212 -0.12 -0.37    +0.361 C 
DOCKED: ATOM      7  O7  IM1 B 600      58.108   0.864  16.594 -0.14 +0.40    -0.238 OA
DOCKED: ATOM      8  H8  IM1 B 600      55.995   2.355  18.309 +0.06 -0.06    +0.165 HD
DOCKED: BRANCH   6   9
DOCKED: ATOM      9  O5  IM1 B 600      56.071   0.069  17.316 -0.08 +0.16    -0.294 OA
DOCKED: BRANCH   9  10
DOCKED: ATOM     10  C1  IM1 B 600      54.828  -0.125  16.646 -0.18 -0.02    +0.061 C 
DOCKED: ATOM     11  C2  IM1 B 600      54.961   0.401  15.209 -0.27 -0.02    +0.046 C 
DOCKED: ATOM     12  C3  IM1 B 600      53.893   0.810  17.425 -0.24 -0.01    +0.046 C 
DOCKED: ATOM     13  C4  IM1 B 600      54.176  -1.517  16.454 -0.08 -0.01    +0.046 C 
DOCKED: ENDBRANCH   9  10
DOCKED: ENDBRANCH   6   9
DOCKED: ENDBRANCH   4   5
DOCKED: BRANCH   4  14
DOCKED: ATOM     14  C10 IM1 B 600      57.161   4.282  16.823 -0.27 -0.06    +0.066 C 
DOCKED: BRANCH  14  15
DOCKED: ATOM     15  C11 IM1 B 600      57.928   5.561  16.891 -0.45 +0.03    -0.056 A 
DOCKED: ATOM     16  C12 IM1 B 600      59.012   5.736  16.039 -0.52 -0.00    +0.007 A 
DOCKED: ATOM     17  C13 IM1 B 600      59.742   6.918  16.123 -0.42 -0.00    +0.001 A 
DOCKED: ATOM     18  C14 IM1 B 600      59.369   7.912  17.067 -0.42 -0.00    +0.000 A 
DOCKED: ATOM     19  C15 IM1 B 600      58.268   7.715  17.911 -0.39 -0.00    +0.001 A 
DOCKED: ATOM     20  C16 IM1 B 600      57.544   6.536  17.823 -0.41 -0.00    +0.007 A 
DOCKED: ENDBRANCH  14  15
DOCKED: ENDBRANCH   4  14
DOCKED: ENDBRANCH   3   4
DOCKED: BRANCH   3  21
DOCKED: ATOM     21  O18 IM1 B 600      56.621   3.770  19.721 -0.53 +0.10    -0.393 OA
DOCKED: ATOM     22  H18 IM1 B 600      56.432   4.675  19.941 -0.39 -0.12    +0.210 HD
DOCKED: ENDBRANCH   3  21
DOCKED: ENDBRANCH   2   3
DOCKED: ENDBRANCH   1   2
DOCKED: BRANCH   1  23
DOCKED: ATOM     23  C21 IM1 B 600      58.116   4.078  22.140 -0.27 -0.01    +0.052 C 
DOCKED: BRANCH  23  24
DOCKED: ATOM     24  C22 IM1 B 600      58.941   5.299  22.434 -0.28 +0.01    -0.057 A 
DOCKED: ATOM     25  C23 IM1 B 600      58.760   6.004  23.632 -0.41 -0.00    +0.007 A 
DOCKED: ATOM     26  C24 IM1 B 600      59.567   7.110  23.904 -0.47 -0.00    +0.001 A 
DOCKED: ATOM     27  C25 IM1 B 600      60.544   7.507  22.979 -0.34 -0.00    +0.000 A 
DOCKED: ATOM     28  C26 IM1 B 600      60.707   6.785  21.776 -0.26 -0.00    +0.001 A 
DOCKED: ATOM     29  C27 IM1 B 600      59.904   5.680  21.504 -0.26 -0.00    +0.007 A 
DOCKED: ENDBRANCH  23  24
DOCKED: ENDBRANCH   1  23
DOCKED: BRANCH   1  30
DOCKED: ATOM     30  C28 IM1 B 600      58.429   1.698  21.962 -0.14 +0.01    +0.222 C 
DOCKED: ATOM     31  O29 IM1 B 600      58.693   1.110  23.008 -0.15 -0.09    -0.273 OA
DOCKED: ATOM     32  N30 IM1 B 600      57.586   1.261  21.096 -0.05 +0.05    -0.349 N 
DOCKED: ATOM     33  H30 IM1 B 600      57.387   1.770  20.234 +0.06 -0.06    +0.163 HD
DOCKED: BRANCH  32  34
DOCKED: ATOM     34  C31 IM1 B 600      56.955   0.043  21.405 -0.07 -0.00    +0.155 C 
DOCKED: BRANCH  34  35
DOCKED: ATOM     35  C32 IM1 B 600      55.465   0.379  21.168 -0.09 -0.00    +0.007 C 
DOCKED: ATOM     36  C33 IM1 B 600      55.159   1.739  20.673 -0.25 -0.00    +0.012 C 
DOCKED: ATOM     37  C34 IM1 B 600      55.041  -0.684  20.160 -0.05 -0.00    +0.012 C 
DOCKED: ENDBRANCH  34  35
DOCKED: BRANCH  34  38
DOCKED: ATOM     38  C35 IM1 B 600      57.688  -0.909  20.520 -0.08 -0.01    +0.104 A 
DOCKED: ATOM     39  N36 IM1 B 600      57.964  -0.863  19.266 +0.01 +0.22    -0.353 N 
DOCKED: ATOM     40  C37 IM1 B 600      58.349  -2.148  19.008 -0.06 -0.04    +0.106 A 
DOCKED: ATOM     41  H36 IM1 B 600      57.909  -0.071  18.626 -0.34 -0.19    +0.166 HD
DOCKED: ATOM     42  C38 IM1 B 600      58.283  -2.889  20.171 -0.06 +0.00    +0.106 A 
DOCKED: ATOM     43  N39 IM1 B 600      57.847  -2.042  21.142 -0.04 -0.06    -0.353 N 
DOCKED: ATOM     44  H39 IM1 B 600      57.683  -2.246  22.128 +0.01 +0.04    +0.166 HD
DOCKED: ENDBRANCH  34  38
DOCKED: ENDBRANCH  32  34
DOCKED: ENDBRANCH   1  30
DOCKED: TORSDOF 15
DOCKED: TER
DOCKED: ENDMDL
________________________________________________________________________________


	BEGINNING GENETIC ALGORITHM DOCKING 7 of 10
Run: 7 Seed: 872825113 1369012732 [ Run 7 of 10 GA/GALS ]
Beginning LAMARCKIAN GENETIC ALGORITHM (LGA), with a maximum of 2500000 energy evaluations.

Final-Value: -13.612


	FINAL GENETIC ALGORITHM DOCKED STATE
	_______________________________________________


Detailed state:  trans 55.323 2.603 17.785 quatxyzw 0.707611 -0.560192 0.122577 -0.412851 center 57.488 2.573 19.823 ntor 15 -128.2420 1.1946 -115.3344 -103.6667 145.4010 -71.7915 137.2976 -52.2716 -4.5039 -58.7372 -172.9755 166.7569 -149.5699 -65.0212 85.9096
State:	 55.323   2.603  17.785   0.777 -0.615  0.135 -131.232   -128.24    1.19 -115.33 -103.67  145.40  -71.79  137.30  -52.27   -4.50  -58.74 -172.98  166.76 -149.57  -65.02   85.91

DOCKED: MODEL        7
DOCKED: USER    Run = 7
DOCKED: USER    DPF = dock.dpf
DOCKED: USER  
DOCKED: USER    Estimated Free Energy of Binding    =   -4.74 kcal/mol  [=(1)+(2)+(3)-(4)]
DOCKED: USER    Estimated Inhibition Constant, Ki   =  336.56 uM (micromolar)  [Temperature = 298.15 K]
DOCKED: USER    
DOCKED: USER    (1) Final Intermolecular Energy     =   -9.21 kcal/mol
DOCKED: USER        vdW + Hbond + desolv Energy     =   -9.07 kcal/mol
DOCKED: USER        Electrostatic Energy            =   -0.14 kcal/mol
DOCKED: USER    (2) Final Total Internal Energy     =   -4.40 kcal/mol
DOCKED: USER    (3) Torsional Free Energy           =   +4.47 kcal/mol
DOCKED: USER    (4) Unbound System's Energy  [=(2)] =   -4.40 kcal/mol
DOCKED: USER    
DOCKED: USER    
DOCKED: USER    NEWDPF move lig1tcw.pdbqt
DOCKED: USER    NEWDPF about 57.488000 2.573000 19.823000
DOCKED: USER    NEWDPF tran0 55.323342 2.603000 17.785176
DOCKED: USER    NEWDPF quaternion0 0.707611 -0.560192 0.122577 -0.412851
DOCKED: USER    NEWDPF axisangle0 0.776913 -0.615056 0.134582 -131.231837
DOCKED: USER    NEWDPF quat0 0.776913 -0.615056 0.134582 -131.231837
DOCKED: USER    NEWDPF dihe0 -128.24 1.19 -115.33 -103.67 145.40 -71.79 137.30 -52.27 -4.50 -58.74 -172.98 166.76 -149.57 -65.02 85.91 
DOCKED: USER  keepresnum = 1 
DOCKED: USER  
DOCKED: REMARK  15 active torsions:
DOCKED: REMARK  status: ('A' for Active; 'I' for Inactive)
DOCKED: REMARK    1  A    between atoms: C1_1  and  O5_5 
DOCKED: REMARK    2  A    between atoms: O5_5  and  C6_6 
DOCKED: REMARK       I    between atoms: C6_6  and  N8_8 
DOCKED: REMARK    3  A    between atoms: N8_8  and  C9_10 
DOCKED: REMARK    4  A    between atoms: C9_10  and  C10_11 
DOCKED: REMARK    5  A    between atoms: C9_10  and  C17_18 
DOCKED: REMARK    6  A    between atoms: C10_11  and  C11_12 
DOCKED: REMARK    7  A    between atoms: C17_18  and  O18_19 
DOCKED: REMARK    8  A    between atoms: C17_18  and  C19_21 
DOCKED: REMARK    9  A    between atoms: C19_21  and  C20_22 
DOCKED: REMARK   10  A    between atoms: C20_22  and  C21_23 
DOCKED: REMARK   11  A    between atoms: C20_22  and  C28_30 
DOCKED: REMARK   12  A    between atoms: C21_23  and  C22_24 
DOCKED: REMARK       I    between atoms: C28_30  and  N30_32 
DOCKED: REMARK   13  A    between atoms: N30_32  and  C31_34 
DOCKED: REMARK   14  A    between atoms: C31_34  and  C32_35 
DOCKED: REMARK   15  A    between atoms: C31_34  and  C35_38 
DOCKED: USER                              x       y       z     vdW  Elec       q    Type
DOCKED: USER                           _______ _______ _______ _____ _____    ______ ____
DOCKED: ROOT
DOCKED: ATOM      1  C20 IM1 B 600      54.666   1.524  18.277 -0.27 -0.02    +0.084 C 
DOCKED: ENDROOT
DOCKED: BRANCH   1   2
DOCKED: ATOM      2  C19 IM1 B 600      55.858   2.329  17.906 -0.20 -0.02    +0.048 C 
DOCKED: BRANCH   2   3
DOCKED: ATOM      3  C17 IM1 B 600      56.422   3.338  18.907 -0.24 -0.04    +0.142 C 
DOCKED: BRANCH   3   4
DOCKED: ATOM      4  C9  IM1 B 600      57.944   3.353  18.824 -0.30 -0.07    +0.119 C 
DOCKED: BRANCH   4   5
DOCKED: ATOM      5  N8  IM1 B 600      58.429   4.697  18.859 -0.14 +0.16    -0.329 N 
DOCKED: ATOM      6  C6  IM1 B 600      59.285   5.238  18.013 -0.21 -0.14    +0.361 C 
DOCKED: ATOM      7  O7  IM1 B 600      59.731   4.561  17.085 -0.63 +0.07    -0.238 OA
DOCKED: ATOM      8  H8  IM1 B 600      58.081   5.294  19.610 -0.12 -0.09    +0.165 HD
DOCKED: BRANCH   6   9
DOCKED: ATOM      9  O5  IM1 B 600      59.657   6.588  18.175 -0.23 +0.11    -0.294 OA
DOCKED: BRANCH   9  10
DOCKED: ATOM     10  C1  IM1 B 600      59.023   7.812  17.810 -0.39 -0.02    +0.061 C 
DOCKED: ATOM     11  C2  IM1 B 600      58.279   8.360  19.037 -0.38 -0.02    +0.046 C 
DOCKED: ATOM     12  C3  IM1 B 600      57.986   7.341  16.780 -0.48 -0.02    +0.046 C 
DOCKED: ATOM     13  C4  IM1 B 600      59.798   9.045  17.285 -0.45 -0.02    +0.046 C 
DOCKED: ENDBRANCH   9  10
DOCKED: ENDBRANCH   6   9
DOCKED: ENDBRANCH   4   5
DOCKED: BRANCH   4  14
DOCKED: ATOM     14  C10 IM1 B 600      58.656   2.706  19.973 -0.25 -0.04    +0.066 C 
DOCKED: BRANCH  14  15
DOCKED: ATOM     15  C11 IM1 B 600      59.099   3.793  20.894 -0.22 +0.02    -0.056 A 
DOCKED: ATOM     16  C12 IM1 B 600      60.456   4.088  20.976 -0.33 -0.00    +0.007 A 
DOCKED: ATOM     17  C13 IM1 B 600      60.869   5.084  21.856 -0.28 -0.00    +0.001 A 
DOCKED: ATOM     18  C14 IM1 B 600      59.908   5.775  22.643 -0.31 -0.00    +0.000 A 
DOCKED: ATOM     19  C15 IM1 B 600      58.547   5.464  22.537 -0.32 -0.00    +0.001 A 
DOCKED: ATOM     20  C16 IM1 B 600      58.139   4.472  21.659 -0.22 -0.00    +0.007 A 
DOCKED: ENDBRANCH  14  15
DOCKED: ENDBRANCH   4  14
DOCKED: ENDBRANCH   3   4
DOCKED: BRANCH   3  21
DOCKED: ATOM     21  O18 IM1 B 600      56.116   4.710  18.660 -0.14 +0.11    -0.393 OA
DOCKED: ATOM     22  H18 IM1 B 600      56.601   4.867  17.859 +0.08 -0.09    +0.210 HD
DOCKED: ENDBRANCH   3  21
DOCKED: ENDBRANCH   2   3
DOCKED: ENDBRANCH   1   2
DOCKED: BRANCH   1  23
DOCKED: ATOM     23  C21 IM1 B 600      54.716   0.029  17.860 -0.17 -0.01    +0.052 C 
DOCKED: BRANCH  23  24
DOCKED: ATOM     24  C22 IM1 B 600      53.656  -0.272  16.839 -0.18 +0.01    -0.057 A 
DOCKED: ATOM     25  C23 IM1 B 600      52.651  -1.209  17.117 -0.13 -0.00    +0.007 A 
DOCKED: ATOM     26  C24 IM1 B 600      51.651  -1.441  16.172 -0.17 +0.00    +0.001 A 
DOCKED: ATOM     27  C25 IM1 B 600      51.663  -0.741  14.955 -0.33 +0.00    +0.000 A 
DOCKED: ATOM     28  C26 IM1 B 600      52.686   0.197  14.694 -0.38 +0.00    +0.001 A 
DOCKED: ATOM     29  C27 IM1 B 600      53.684   0.431  15.637 -0.27 -0.00    +0.007 A 
DOCKED: ENDBRANCH  23  24
DOCKED: ENDBRANCH   1  23
DOCKED: BRANCH   1  30
DOCKED: ATOM     30  C28 IM1 B 600      54.395   1.483  19.751 -0.22 -0.02    +0.222 C 
DOCKED: ATOM     31  O29 IM1 B 600      53.500   2.030  20.390 -0.29 +0.01    -0.273 OA
DOCKED: ATOM     32  N30 IM1 B 600      55.299   0.744  20.286 -0.02 +0.04    -0.349 N 
DOCKED: ATOM     33  H30 IM1 B 600      56.033   0.303  19.732 +0.05 -0.04    +0.163 HD
DOCKED: BRANCH  32  34
DOCKED: ATOM     34  C31 IM1 B 600      55.219   0.579  21.681 -0.07 -0.01    +0.155 C 
DOCKED: BRANCH  34  35
DOCKED: ATOM     35  C32 IM1 B 600      55.471   2.016  22.193 -0.23 -0.00    +0.007 C 
DOCKED: ATOM     36  C33 IM1 B 600      54.458   2.585  23.109 -0.31 -0.00    +0.012 C 
DOCKED: ATOM     37  C34 IM1 B 600      56.827   1.890  22.882 -0.17 +0.00    +0.012 C 
DOCKED: ENDBRANCH  34  35
DOCKED: BRANCH  34  38
DOCKED: ATOM     38  C35 IM1 B 600      53.888  -0.077  21.830 -0.07 -0.00    +0.104 A 
DOCKED: ATOM     39  N36 IM1 B 600      52.746   0.388  22.194 -0.06 +0.01    -0.353 N 
DOCKED: ATOM     40  C37 IM1 B 600      52.034  -0.753  22.435 -0.08 -0.00    +0.106 A 
DOCKED: ATOM     41  H36 IM1 B 600      52.448   1.359  22.281 +0.06 -0.00    +0.166 HD
DOCKED: ATOM     42  C38 IM1 B 600      52.827  -1.853  22.178 -0.02 -0.00    +0.106 A 
DOCKED: ATOM     43  N39 IM1 B 600      54.036  -1.370  21.781 +0.01 +0.01    -0.353 N 
DOCKED: ATOM     44  H39 IM1 B 600      54.865  -1.898  21.509 +0.01 -0.00    +0.166 HD
DOCKED: ENDBRANCH  34  38
DOCKED: ENDBRANCH  32  34
DOCKED: ENDBRANCH   1  30
DOCKED: TORSDOF 15
DOCKED: TER
DOCKED: ENDMDL
________________________________________________________________________________


	BEGINNING GENETIC ALGORITHM DOCKING 8 of 10
Run: 8 Seed: 88002149 1737905248 [ Run 8 of 10 GA/GALS ]
Beginning LAMARCKIAN GENETIC ALGORITHM (LGA), with a maximum of 2500000 energy evaluations.

Final-Value: -12.737


	FINAL GENETIC ALGORITHM DOCKED STATE
	_______________________________________________


Detailed state:  trans 56.393 3.092 22.087 quatxyzw -0.247790 -0.134781 0.024813 0.959072 center 57.488 2.573 19.823 ntor 15 137.0907 -179.5257 72.6496 -104.1682 167.0592 179.8506 34.7378 6.3059 70.1937 150.5341 -11.2404 -158.7308 18.0082 -23.3448 -163.4694
State:	 56.393   3.092  22.087  -0.875 -0.476  0.088 32.898    137.09 -179.53   72.65 -104.17  167.06  179.85   34.74    6.31   70.19  150.53  -11.24 -158.73   18.01  -23.34 -163.47

DOCKED: MODEL        8
DOCKED: USER    Run = 8
DOCKED: USER    DPF = dock.dpf
DOCKED: USER  
DOCKED: USER    Estimated Free Energy of Binding    =   -3.78 kcal/mol  [=(1)+(2)+(3)-(4)]
DOCKED: USER    Estimated Inhibition Constant, Ki   =    1.71 mM (millimolar)  [Temperature = 298.15 K]
DOCKED: USER    
DOCKED: USER    (1) Final Intermolecular Energy     =   -8.25 kcal/mol
DOCKED: USER        vdW + Hbond + desolv Energy     =   -8.10 kcal/mol
DOCKED: USER        Electrostatic Energy            =   -0.15 kcal/mol
DOCKED: USER    (2) Final Total Internal Energy     =   -4.49 kcal/mol
DOCKED: USER    (3) Torsional Free Energy           =   +4.47 kcal/mol
DOCKED: USER    (4) Unbound System's Energy  [=(2)] =   -4.49 kcal/mol
DOCKED: USER    
DOCKED: USER    
DOCKED: USER    NEWDPF move lig1tcw.pdbqt
DOCKED: USER    NEWDPF about 57.488000 2.573000 19.823000
DOCKED: USER    NEWDPF tran0 56.393440 3.091679 22.086680
DOCKED: USER    NEWDPF quaternion0 -0.247790 -0.134781 0.024813 0.959072
DOCKED: USER    NEWDPF axisangle0 -0.875078 -0.475983 0.087628 32.898135
DOCKED: USER    NEWDPF quat0 -0.875078 -0.475983 0.087628 32.898135
DOCKED: USER    NEWDPF dihe0 137.09 -179.53 72.65 -104.17 167.06 179.85 34.74 6.31 70.19 150.53 -11.24 -158.73 18.01 -23.34 -163.47 
DOCKED: USER  keepresnum = 1 
DOCKED: USER  
DOCKED: REMARK  15 active torsions:
DOCKED: REMARK  status: ('A' for Active; 'I' for Inactive)
DOCKED: REMARK    1  A    between atoms: C1_1  and  O5_5 
DOCKED: REMARK    2  A    between atoms: O5_5  and  C6_6 
DOCKED: REMARK       I    between atoms: C6_6  and  N8_8 
DOCKED: REMARK    3  A    between atoms: N8_8  and  C9_10 
DOCKED: REMARK    4  A    between atoms: C9_10  and  C10_11 
DOCKED: REMARK    5  A    between atoms: C9_10  and  C17_18 
DOCKED: REMARK    6  A    between atoms: C10_11  and  C11_12 
DOCKED: REMARK    7  A    between atoms: C17_18  and  O18_19 
DOCKED: REMARK    8  A    between atoms: C17_18  and  C19_21 
DOCKED: REMARK    9  A    between atoms: C19_21  and  C20_22 
DOCKED: REMARK   10  A    between atoms: C20_22  and  C21_23 
DOCKED: REMARK   11  A    between atoms: C20_22  and  C28_30 
DOCKED: REMARK   12  A    between atoms: C21_23  and  C22_24 
DOCKED: REMARK       I    between atoms: C28_30  and  N30_32 
DOCKED: REMARK   13  A    between atoms: N30_32  and  C31_34 
DOCKED: REMARK   14  A    between atoms: C31_34  and  C32_35 
DOCKED: REMARK   15  A    between atoms: C31_34  and  C35_38 
DOCKED: USER                              x       y       z     vdW  Elec       q    Type
DOCKED: USER                           _______ _______ _______ _____ _____    ______ ____
DOCKED: ROOT
DOCKED: ATOM      1  C20 IM1 B 600      57.455   3.527  22.809 -0.27 -0.01    +0.084 C 
DOCKED: ENDROOT
DOCKED: BRANCH   1   2
DOCKED: ATOM      2  C19 IM1 B 600      56.770   2.752  21.742 -0.23 -0.01    +0.048 C 
DOCKED: BRANCH   2   3
DOCKED: ATOM      3  C17 IM1 B 600      57.498   1.581  21.083 -0.14 -0.02    +0.142 C 
DOCKED: BRANCH   3   4
DOCKED: ATOM      4  C9  IM1 B 600      56.649   1.015  19.950 -0.12 -0.04    +0.119 C 
DOCKED: BRANCH   4   5
DOCKED: ATOM      5  N8  IM1 B 600      55.355   0.650  20.435 -0.02 +0.04    -0.329 N 
DOCKED: ATOM      6  C6  IM1 B 600      54.346   1.472  20.656 -0.14 -0.02    +0.361 C 
DOCKED: ATOM      7  O7  IM1 B 600      54.484   2.675  20.434 -0.33 -0.03    -0.238 OA
DOCKED: ATOM      8  H8  IM1 B 600      55.197  -0.339  20.628 +0.04 -0.01    +0.165 HD
DOCKED: BRANCH   6   9
DOCKED: ATOM      9  O5  IM1 B 600      53.123   0.952  21.124 -0.14 +0.01    -0.294 OA
DOCKED: BRANCH   9  10
DOCKED: ATOM     10  C1  IM1 B 600      52.028   0.322  20.462 -0.23 -0.00    +0.061 C 
DOCKED: ATOM     11  C2  IM1 B 600      51.235   1.395  19.702 -0.40 -0.01    +0.046 C 
DOCKED: ATOM     12  C3  IM1 B 600      51.179  -0.169  21.643 -0.16 -0.00    +0.046 C 
DOCKED: ATOM     13  C4  IM1 B 600      52.206  -0.799  19.410 -0.14 -0.00    +0.046 C 
DOCKED: ENDBRANCH   9  10
DOCKED: ENDBRANCH   6   9
DOCKED: ENDBRANCH   4   5
DOCKED: BRANCH   4  14
DOCKED: ATOM     14  C10 IM1 B 600      56.336   1.974  18.842 -0.26 -0.03    +0.066 C 
DOCKED: BRANCH  14  15
DOCKED: ATOM     15  C11 IM1 B 600      56.003   1.166  17.632 -0.21 +0.03    -0.056 A 
DOCKED: ATOM     16  C12 IM1 B 600      57.036   0.763  16.793 -0.23 -0.01    +0.007 A 
DOCKED: ATOM     17  C13 IM1 B 600      56.720   0.032  15.651 -0.21 -0.00    +0.001 A 
DOCKED: ATOM     18  C14 IM1 B 600      55.364  -0.286  15.369 -0.19 -0.00    +0.000 A 
DOCKED: ATOM     19  C15 IM1 B 600      54.342   0.126  16.234 -0.22 -0.00    +0.001 A 
DOCKED: ATOM     20  C16 IM1 B 600      54.661   0.853  17.370 -0.23 -0.00    +0.007 A 
DOCKED: ENDBRANCH  14  15
DOCKED: ENDBRANCH   4  14
DOCKED: ENDBRANCH   3   4
DOCKED: BRANCH   3  21
DOCKED: ATOM     21  O18 IM1 B 600      58.707   1.896  20.394 -0.12 +0.20    -0.393 OA
DOCKED: ATOM     22  H18 IM1 B 600      58.813   1.128  19.845 -0.19 -0.23    +0.210 HD
DOCKED: ENDBRANCH   3  21
DOCKED: ENDBRANCH   2   3
DOCKED: ENDBRANCH   1   2
DOCKED: BRANCH   1  23
DOCKED: ATOM     23  C21 IM1 B 600      58.517   2.741  23.626 -0.29 +0.00    +0.052 C 
DOCKED: BRANCH  23  24
DOCKED: ATOM     24  C22 IM1 B 600      57.910   1.512  24.240 -0.19 -0.01    -0.057 A 
DOCKED: ATOM     25  C23 IM1 B 600      58.563   0.275  24.140 -0.15 +0.00    +0.007 A 
DOCKED: ATOM     26  C24 IM1 B 600      58.002  -0.846  24.755 -0.09 +0.00    +0.001 A 
DOCKED: ATOM     27  C25 IM1 B 600      56.795  -0.727  25.460 -0.05 +0.00    +0.000 A 
DOCKED: ATOM     28  C26 IM1 B 600      56.153   0.528  25.546 -0.11 +0.00    +0.001 A 
DOCKED: ATOM     29  C27 IM1 B 600      56.711   1.648  24.934 -0.17 +0.00    +0.007 A 
DOCKED: ENDBRANCH  23  24
DOCKED: ENDBRANCH   1  23
DOCKED: BRANCH   1  30
DOCKED: ATOM     30  C28 IM1 B 600      58.196   4.729  22.307 -0.21 -0.05    +0.222 C 
DOCKED: ATOM     31  O29 IM1 B 600      58.317   5.837  22.823 -0.26 +0.04    -0.273 OA
DOCKED: ATOM     32  N30 IM1 B 600      58.721   4.412  21.178 -0.07 +0.11    -0.349 N 
DOCKED: ATOM     33  H30 IM1 B 600      58.603   3.483  20.771 +0.08 -0.06    +0.163 HD
DOCKED: BRANCH  32  34
DOCKED: ATOM     34  C31 IM1 B 600      59.467   5.417  20.537 -0.23 -0.06    +0.155 C 
DOCKED: BRANCH  34  35
DOCKED: ATOM     35  C32 IM1 B 600      60.913   5.068  20.957 -0.22 -0.00    +0.007 C 
DOCKED: ATOM     36  C33 IM1 B 600      61.176   4.952  22.408 -0.36 -0.00    +0.012 C 
DOCKED: ATOM     37  C34 IM1 B 600      61.154   3.740  20.245 -0.44 -0.01    +0.012 C 
DOCKED: ENDBRANCH  34  35
DOCKED: BRANCH  34  38
DOCKED: ATOM     38  C35 IM1 B 600      59.012   5.274  19.123 -0.27 -0.05    +0.104 A 
DOCKED: ATOM     39  N36 IM1 B 600      58.564   4.261  18.472 -0.17 +0.20    -0.353 N 
DOCKED: ATOM     40  C37 IM1 B 600      58.638   4.693  17.179 -0.42 -0.07    +0.106 A 
DOCKED: ATOM     41  H36 IM1 B 600      58.237   3.363  18.829 +0.08 -0.11    +0.166 HD
DOCKED: ATOM     42  C38 IM1 B 600      59.133   5.981  17.152 -0.40 -0.04    +0.106 A 
DOCKED: ATOM     43  N39 IM1 B 600      59.364   6.330  18.448 -0.13 +0.14    -0.353 N 
DOCKED: ATOM     44  H39 IM1 B 600      59.728   7.213  18.806 +0.10 -0.07    +0.166 HD
DOCKED: ENDBRANCH  34  38
DOCKED: ENDBRANCH  32  34
DOCKED: ENDBRANCH   1  30
DOCKED: TORSDOF 15
DOCKED: TER
DOCKED: ENDMDL
________________________________________________________________________________


	BEGINNING GENETIC ALGORITHM DOCKING 9 of 10
Run: 9 Seed: 517041978 506799855 [ Run 9 of 10 GA/GALS ]
Beginning LAMARCKIAN GENETIC ALGORITHM (LGA), with a maximum of 2500000 energy evaluations.

Final-Value: -13.882


	FINAL GENETIC ALGORITHM DOCKED STATE
	_______________________________________________


Detailed state:  trans 56.425 1.188 19.266 quatxyzw 0.395444 -0.019099 0.854642 -0.335927 center 57.488 2.573 19.823 ntor 15 114.9391 -83.1205 -144.1179 -76.5258 -170.3036 -117.4728 38.7314 -62.7939 -130.9830 -58.1742 3.1598 50.0727 -158.6581 -108.8893 174.1066
State:	 56.425   1.188  19.266   0.420 -0.020  0.907 -140.742    114.94  -83.12 -144.12  -76.53 -170.30 -117.47   38.73  -62.79 -130.98  -58.17    3.16   50.07 -158.66 -108.89  174.11

DOCKED: MODEL        9
DOCKED: USER    Run = 9
DOCKED: USER    DPF = dock.dpf
DOCKED: USER  
DOCKED: USER    Estimated Free Energy of Binding    =   -4.58 kcal/mol  [=(1)+(2)+(3)-(4)]
DOCKED: USER    Estimated Inhibition Constant, Ki   =  439.01 uM (micromolar)  [Temperature = 298.15 K]
DOCKED: USER    
DOCKED: USER    (1) Final Intermolecular Energy     =   -9.05 kcal/mol
DOCKED: USER        vdW + Hbond + desolv Energy     =   -8.95 kcal/mol
DOCKED: USER        Electrostatic Energy            =   -0.11 kcal/mol
DOCKED: USER    (2) Final Total Internal Energy     =   -4.83 kcal/mol
DOCKED: USER    (3) Torsional Free Energy           =   +4.47 kcal/mol
DOCKED: USER    (4) Unbound System's Energy  [=(2)] =   -4.83 kcal/mol
DOCKED: USER    
DOCKED: USER    
DOCKED: USER    NEWDPF move lig1tcw.pdbqt
DOCKED: USER    NEWDPF about 57.488000 2.573000 19.823000
DOCKED: USER    NEWDPF tran0 56.425052 1.188219 19.265663
DOCKED: USER    NEWDPF quaternion0 0.395444 -0.019099 0.854642 -0.335927
DOCKED: USER    NEWDPF axisangle0 0.419841 -0.020278 0.907371 -140.742215
DOCKED: USER    NEWDPF quat0 0.419841 -0.020278 0.907371 -140.742215
DOCKED: USER    NEWDPF dihe0 114.94 -83.12 -144.12 -76.53 -170.30 -117.47 38.73 -62.79 -130.98 -58.17 3.16 50.07 -158.66 -108.89 174.11 
DOCKED: USER  keepresnum = 1 
DOCKED: USER  
DOCKED: REMARK  15 active torsions:
DOCKED: REMARK  status: ('A' for Active; 'I' for Inactive)
DOCKED: REMARK    1  A    between atoms: C1_1  and  O5_5 
DOCKED: REMARK    2  A    between atoms: O5_5  and  C6_6 
DOCKED: REMARK       I    between atoms: C6_6  and  N8_8 
DOCKED: REMARK    3  A    between atoms: N8_8  and  C9_10 
DOCKED: REMARK    4  A    between atoms: C9_10  and  C10_11 
DOCKED: REMARK    5  A    between atoms: C9_10  and  C17_18 
DOCKED: REMARK    6  A    between atoms: C10_11  and  C11_12 
DOCKED: REMARK    7  A    between atoms: C17_18  and  O18_19 
DOCKED: REMARK    8  A    between atoms: C17_18  and  C19_21 
DOCKED: REMARK    9  A    between atoms: C19_21  and  C20_22 
DOCKED: REMARK   10  A    between atoms: C20_22  and  C21_23 
DOCKED: REMARK   11  A    between atoms: C20_22  and  C28_30 
DOCKED: REMARK   12  A    between atoms: C21_23  and  C22_24 
DOCKED: REMARK       I    between atoms: C28_30  and  N30_32 
DOCKED: REMARK   13  A    between atoms: N30_32  and  C31_34 
DOCKED: REMARK   14  A    between atoms: C31_34  and  C32_35 
DOCKED: REMARK   15  A    between atoms: C31_34  and  C35_38 
DOCKED: USER                              x       y       z     vdW  Elec       q    Type
DOCKED: USER                           _______ _______ _______ _____ _____    ______ ____
DOCKED: ROOT
DOCKED: ATOM      1  C20 IM1 B 600      55.981   0.807  20.488 -0.10 -0.01    +0.084 C 
DOCKED: ENDROOT
DOCKED: BRANCH   1   2
DOCKED: ATOM      2  C19 IM1 B 600      56.441   1.771  19.455 -0.22 -0.02    +0.048 C 
DOCKED: BRANCH   2   3
DOCKED: ATOM      3  C17 IM1 B 600      56.416   3.268  19.764 -0.16 -0.03    +0.142 C 
DOCKED: BRANCH   3   4
DOCKED: ATOM      4  C9  IM1 B 600      57.809   3.735  20.173 -0.23 -0.05    +0.119 C 
DOCKED: BRANCH   4   5
DOCKED: ATOM      5  N8  IM1 B 600      58.203   4.863  19.391 -0.11 +0.16    -0.329 N 
DOCKED: ATOM      6  C6  IM1 B 600      59.337   4.993  18.729 -0.20 -0.15    +0.361 C 
DOCKED: ATOM      7  O7  IM1 B 600      60.162   4.080  18.754 -0.87 +0.10    -0.238 OA
DOCKED: ATOM      8  H8  IM1 B 600      57.546   5.642  19.340 -0.42 -0.11    +0.165 HD
DOCKED: BRANCH   6   9
DOCKED: ATOM      9  O5  IM1 B 600      59.574   6.169  17.989 -0.30 +0.11    -0.294 OA
DOCKED: BRANCH   9  10
DOCKED: ATOM     10  C1  IM1 B 600      58.823   6.837  16.977 -0.48 -0.02    +0.061 C 
DOCKED: ATOM     11  C2  IM1 B 600      57.555   7.424  17.618 -0.46 -0.02    +0.046 C 
DOCKED: ATOM     12  C3  IM1 B 600      58.414   5.676  16.061 -0.59 -0.03    +0.046 C 
DOCKED: ATOM     13  C4  IM1 B 600      59.380   8.020  16.149 -0.53 -0.02    +0.046 C 
DOCKED: ENDBRANCH   9  10
DOCKED: ENDBRANCH   6   9
DOCKED: ENDBRANCH   4   5
DOCKED: BRANCH   4  14
DOCKED: ATOM     14  C10 IM1 B 600      57.930   4.238  21.580 -0.23 -0.02    +0.066 C 
DOCKED: BRANCH  14  15
DOCKED: ATOM     15  C11 IM1 B 600      59.379   4.223  21.937 -0.22 +0.01    -0.056 A 
DOCKED: ATOM     16  C12 IM1 B 600      60.038   3.001  22.003 -0.30 -0.00    +0.007 A 
DOCKED: ATOM     17  C13 IM1 B 600      61.383   2.988  22.362 -0.39 +0.00    +0.001 A 
DOCKED: ATOM     18  C14 IM1 B 600      62.049   4.210  22.650 -0.31 -0.00    +0.000 A 
DOCKED: ATOM     19  C15 IM1 B 600      61.364   5.429  22.570 -0.26 -0.00    +0.001 A 
DOCKED: ATOM     20  C16 IM1 B 600      60.025   5.437  22.211 -0.28 -0.00    +0.007 A 
DOCKED: ENDBRANCH  14  15
DOCKED: ENDBRANCH   4  14
DOCKED: ENDBRANCH   3   4
DOCKED: BRANCH   3  21
DOCKED: ATOM     21  O18 IM1 B 600      56.144   4.135  18.664 -0.46 +0.07    -0.393 OA
DOCKED: ATOM     22  H18 IM1 B 600      56.116   4.980  19.097 -0.50 -0.09    +0.210 HD
DOCKED: ENDBRANCH   3  21
DOCKED: ENDBRANCH   2   3
DOCKED: ENDBRANCH   1   2
DOCKED: BRANCH   1  23
DOCKED: ATOM     23  C21 IM1 B 600      56.607   0.993  21.898 -0.10 -0.00    +0.052 C 
DOCKED: BRANCH  23  24
DOCKED: ATOM     24  C22 IM1 B 600      57.241  -0.285  22.369 -0.08 -0.01    -0.057 A 
DOCKED: ATOM     25  C23 IM1 B 600      57.576  -0.453  23.720 -0.09 +0.00    +0.007 A 
DOCKED: ATOM     26  C24 IM1 B 600      58.124  -1.665  24.143 -0.07 +0.00    +0.001 A 
DOCKED: ATOM     27  C25 IM1 B 600      58.338  -2.697  23.217 -0.06 +0.00    +0.000 A 
DOCKED: ATOM     28  C26 IM1 B 600      57.996  -2.506  21.860 -0.07 +0.00    +0.001 A 
DOCKED: ATOM     29  C27 IM1 B 600      57.447  -1.298  21.436 -0.08 +0.00    +0.007 A 
DOCKED: ENDBRANCH  23  24
DOCKED: ENDBRANCH   1  23
DOCKED: BRANCH   1  30
DOCKED: ATOM     30  C28 IM1 B 600      54.503   0.841  20.738 -0.12 -0.02    +0.222 C 
DOCKED: ATOM     31  O29 IM1 B 600      53.665   1.638  20.324 -0.25 +0.01    -0.273 OA
DOCKED: ATOM     32  N30 IM1 B 600      54.222  -0.151  21.504 -0.01 +0.01    -0.349 N 
DOCKED: ATOM     33  H30 IM1 B 600      54.939  -0.797  21.836 +0.03 -0.00    +0.163 HD
DOCKED: BRANCH  32  34
DOCKED: ATOM     34  C31 IM1 B 600      52.868  -0.294  21.860 -0.09 -0.00    +0.155 C 
DOCKED: BRANCH  34  35
DOCKED: ATOM     35  C32 IM1 B 600      52.471  -1.586  21.110 -0.06 -0.00    +0.007 C 
DOCKED: ATOM     36  C33 IM1 B 600      53.449  -2.695  21.126 -0.01 -0.00    +0.012 C 
DOCKED: ATOM     37  C34 IM1 B 600      51.171  -1.986  21.803 -0.05 -0.00    +0.012 C 
DOCKED: ENDBRANCH  34  35
DOCKED: BRANCH  34  38
DOCKED: ATOM     38  C35 IM1 B 600      52.942  -0.251  23.349 -0.08 -0.00    +0.104 A 
DOCKED: ATOM     39  N36 IM1 B 600      52.271   0.422  24.214 -0.06 +0.01    -0.353 N 
DOCKED: ATOM     40  C37 IM1 B 600      53.020   0.264  25.346 -0.08 -0.00    +0.106 A 
DOCKED: ATOM     41  H36 IM1 B 600      51.403   0.942  24.089 +0.03 -0.01    +0.166 HD
DOCKED: ATOM     42  C38 IM1 B 600      54.115  -0.528  25.065 -0.03 -0.00    +0.106 A 
DOCKED: ATOM     43  N39 IM1 B 600      54.029  -0.849  23.745 -0.00 +0.00    -0.353 N 
DOCKED: ATOM     44  H39 IM1 B 600      54.666  -1.424  23.195 +0.01 +0.00    +0.166 HD
DOCKED: ENDBRANCH  34  38
DOCKED: ENDBRANCH  32  34
DOCKED: ENDBRANCH   1  30
DOCKED: TORSDOF 15
DOCKED: TER
DOCKED: ENDMDL
________________________________________________________________________________


	BEGINNING GENETIC ALGORITHM DOCKING 10 of 10
Run: 10 Seed: 450288585 1088574014 [ Run 10 of 10 GA/GALS ]
Beginning LAMARCKIAN GENETIC ALGORITHM (LGA), with a maximum of 2500000 energy evaluations.

Final-Value: -16.148


	FINAL GENETIC ALGORITHM DOCKED STATE
	_______________________________________________


Detailed state:  trans 59.196 4.068 19.970 quatxyzw 0.560304 -0.763525 -0.248215 0.203662 center 57.488 2.573 19.823 ntor 15 122.7460 51.3582 -52.7695 -123.8688 -119.6548 161.4501 -33.2154 -40.2607 -33.8541 -81.2318 -171.4052 -105.4781 147.0573 -136.5186 -36.3669
State:	 59.196   4.068  19.970   0.572 -0.780 -0.254 156.498    122.75   51.36  -52.77 -123.87 -119.65  161.45  -33.22  -40.26  -33.85  -81.23 -171.41 -105.48  147.06 -136.52  -36.37

DOCKED: MODEL       10
DOCKED: USER    Run = 10
DOCKED: USER    DPF = dock.dpf
DOCKED: USER  
DOCKED: USER    Estimated Free Energy of Binding    =   -7.17 kcal/mol  [=(1)+(2)+(3)-(4)]
DOCKED: USER    Estimated Inhibition Constant, Ki   =    5.60 uM (micromolar)  [Temperature = 298.15 K]
DOCKED: USER    
DOCKED: USER    (1) Final Intermolecular Energy     =  -11.64 kcal/mol
DOCKED: USER        vdW + Hbond + desolv Energy     =  -11.51 kcal/mol
DOCKED: USER        Electrostatic Energy            =   -0.13 kcal/mol
DOCKED: USER    (2) Final Total Internal Energy     =   -4.51 kcal/mol
DOCKED: USER    (3) Torsional Free Energy           =   +4.47 kcal/mol
DOCKED: USER    (4) Unbound System's Energy  [=(2)] =   -4.51 kcal/mol
DOCKED: USER    
DOCKED: USER    
DOCKED: USER    NEWDPF move lig1tcw.pdbqt
DOCKED: USER    NEWDPF about 57.488000 2.573000 19.823000
DOCKED: USER    NEWDPF tran0 59.195925 4.067764 19.969852
DOCKED: USER    NEWDPF quaternion0 0.560304 -0.763525 -0.248215 0.203662
DOCKED: USER    NEWDPF axisangle0 0.572299 -0.779870 -0.253529 156.497680
DOCKED: USER    NEWDPF quat0 0.572299 -0.779870 -0.253529 156.497680
DOCKED: USER    NEWDPF dihe0 122.75 51.36 -52.77 -123.87 -119.65 161.45 -33.22 -40.26 -33.85 -81.23 -171.41 -105.48 147.06 -136.52 -36.37 
DOCKED: USER  keepresnum = 1 
DOCKED: USER  
DOCKED: REMARK  15 active torsions:
DOCKED: REMARK  status: ('A' for Active; 'I' for Inactive)
DOCKED: REMARK    1  A    between atoms: C1_1  and  O5_5 
DOCKED: REMARK    2  A    between atoms: O5_5  and  C6_6 
DOCKED: REMARK       I    between atoms: C6_6  and  N8_8 
DOCKED: REMARK    3  A    between atoms: N8_8  and  C9_10 
DOCKED: REMARK    4  A    between atoms: C9_10  and  C10_11 
DOCKED: REMARK    5  A    between atoms: C9_10  and  C17_18 
DOCKED: REMARK    6  A    between atoms: C10_11  and  C11_12 
DOCKED: REMARK    7  A    between atoms: C17_18  and  O18_19 
DOCKED: REMARK    8  A    between atoms: C17_18  and  C19_21 
DOCKED: REMARK    9  A    between atoms: C19_21  and  C20_22 
DOCKED: REMARK   10  A    between atoms: C20_22  and  C21_23 
DOCKED: REMARK   11  A    between atoms: C20_22  and  C28_30 
DOCKED: REMARK   12  A    between atoms: C21_23  and  C22_24 
DOCKED: REMARK       I    between atoms: C28_30  and  N30_32 
DOCKED: REMARK   13  A    between atoms: N30_32  and  C31_34 
DOCKED: REMARK   14  A    between atoms: C31_34  and  C32_35 
DOCKED: REMARK   15  A    between atoms: C31_34  and  C35_38 
DOCKED: USER                              x       y       z     vdW  Elec       q    Type
DOCKED: USER                           _______ _______ _______ _____ _____    ______ ____
DOCKED: ROOT
DOCKED: ATOM      1  C20 IM1 B 600      58.172   4.048  19.082 -0.32 -0.04    +0.084 C 
DOCKED: ENDROOT
DOCKED: BRANCH   1   2
DOCKED: ATOM      2  C19 IM1 B 600      59.463   3.605  19.669 -0.32 -0.03    +0.048 C 
DOCKED: BRANCH   2   3
DOCKED: ATOM      3  C17 IM1 B 600      60.395   4.643  20.295 -0.30 -0.07    +0.142 C 
DOCKED: BRANCH   3   4
DOCKED: ATOM      4  C9  IM1 B 600      59.803   5.145  21.607 -0.24 -0.04    +0.119 C 
DOCKED: BRANCH   4   5
DOCKED: ATOM      5  N8  IM1 B 600      59.924   4.145  22.621 -0.10 +0.05    -0.329 N 
DOCKED: ATOM      6  C6  IM1 B 600      59.125   3.988  23.659 -0.18 -0.01    +0.361 C 
DOCKED: ATOM      7  O7  IM1 B 600      58.167   4.749  23.807 -0.28 +0.01    -0.238 OA
DOCKED: ATOM      8  H8  IM1 B 600      60.702   3.491  22.533 +0.09 -0.01    +0.165 HD
DOCKED: BRANCH   6   9
DOCKED: ATOM      9  O5  IM1 B 600      59.371   2.940  24.568 -0.29 -0.02    -0.294 OA
DOCKED: BRANCH   9  10
DOCKED: ATOM     10  C1  IM1 B 600      58.777   1.655  24.739 -0.32 +0.01    +0.061 C 
DOCKED: ATOM     11  C2  IM1 B 600      59.751   0.770  25.532 -0.30 +0.01    +0.046 C 
DOCKED: ATOM     12  C3  IM1 B 600      58.711   1.137  23.295 -0.20 +0.01    +0.046 C 
DOCKED: ATOM     13  C4  IM1 B 600      57.428   1.433  25.464 -0.21 +0.00    +0.046 C 
DOCKED: ENDBRANCH   9  10
DOCKED: ENDBRANCH   6   9
DOCKED: ENDBRANCH   4   5
DOCKED: BRANCH   4  14
DOCKED: ATOM     14  C10 IM1 B 600      60.496   6.327  22.213 -0.30 -0.03    +0.066 C 
DOCKED: BRANCH  14  15
DOCKED: ATOM     15  C11 IM1 B 600      59.842   7.555  21.671 -0.26 +0.02    -0.056 A 
DOCKED: ATOM     16  C12 IM1 B 600      59.007   7.435  20.566 -0.29 -0.00    +0.007 A 
DOCKED: ATOM     17  C13 IM1 B 600      58.421   8.585  20.046 -0.36 -0.00    +0.001 A 
DOCKED: ATOM     18  C14 IM1 B 600      58.682   9.845  20.648 -0.37 -0.00    +0.000 A 
DOCKED: ATOM     19  C15 IM1 B 600      59.521   9.939  21.765 -0.37 -0.00    +0.001 A 
DOCKED: ATOM     20  C16 IM1 B 600      60.103   8.791  22.280 -0.31 -0.00    +0.007 A 
DOCKED: ENDBRANCH  14  15
DOCKED: ENDBRANCH   4  14
DOCKED: ENDBRANCH   3   4
DOCKED: BRANCH   3  21
DOCKED: ATOM     21  O18 IM1 B 600      61.669   4.167  20.728 -0.20 +0.23    -0.393 OA
DOCKED: ATOM     22  H18 IM1 B 600      62.033   4.949  21.126 -0.39 -0.19    +0.210 HD
DOCKED: ENDBRANCH   3  21
DOCKED: ENDBRANCH   2   3
DOCKED: ENDBRANCH   1   2
DOCKED: BRANCH   1  23
DOCKED: ATOM     23  C21 IM1 B 600      58.164   4.215  17.538 -0.47 -0.04    +0.052 C 
DOCKED: BRANCH  23  24
DOCKED: ATOM     24  C22 IM1 B 600      58.250   5.667  17.162 -0.45 +0.03    -0.057 A 
DOCKED: ATOM     25  C23 IM1 B 600      59.377   6.158  16.487 -0.53 -0.00    +0.007 A 
DOCKED: ATOM     26  C24 IM1 B 600      59.416   7.501  16.109 -0.53 -0.00    +0.001 A 
DOCKED: ATOM     27  C25 IM1 B 600      58.336   8.344  16.409 -0.32 -0.00    +0.000 A 
DOCKED: ATOM     28  C26 IM1 B 600      57.211   7.830  17.092 -0.42 -0.00    +0.001 A 
DOCKED: ATOM     29  C27 IM1 B 600      57.169   6.490  17.469 -0.44 -0.00    +0.007 A 
DOCKED: ENDBRANCH  23  24
DOCKED: ENDBRANCH   1  23
DOCKED: BRANCH   1  30
DOCKED: ATOM     30  C28 IM1 B 600      57.029   3.117  19.354 -0.23 -0.09    +0.222 C 
DOCKED: ATOM     31  O29 IM1 B 600      55.929   3.059  18.810 -0.81 +0.04    -0.273 OA
DOCKED: ATOM     32  N30 IM1 B 600      57.389   2.336  20.309 -0.07 +0.11    -0.349 N 
DOCKED: ATOM     33  H30 IM1 B 600      58.309   2.408  20.745 +0.07 -0.05    +0.163 HD
DOCKED: BRANCH  32  34
DOCKED: ATOM     34  C31 IM1 B 600      56.444   1.379  20.717 -0.11 -0.02    +0.155 C 
DOCKED: BRANCH  34  35
DOCKED: ATOM     35  C32 IM1 B 600      55.292   2.263  21.246 -0.28 -0.00    +0.007 C 
DOCKED: ATOM     36  C33 IM1 B 600      54.064   1.567  21.687 -0.27 -0.00    +0.012 C 
DOCKED: ATOM     37  C34 IM1 B 600      55.950   3.008  22.404 -0.30 -0.00    +0.012 C 
DOCKED: ENDBRANCH  34  35
DOCKED: BRANCH  34  38
DOCKED: ATOM     38  C35 IM1 B 600      56.290   0.560  19.479 -0.08 -0.03    +0.104 A 
DOCKED: ATOM     39  N36 IM1 B 600      55.244   0.154  18.852 -0.02 +0.08    -0.353 N 
DOCKED: ATOM     40  C37 IM1 B 600      55.760  -0.794  18.015 -0.04 -0.03    +0.106 A 
DOCKED: ATOM     41  H36 IM1 B 600      54.277   0.461  18.953 +0.05 -0.03    +0.166 HD
DOCKED: ATOM     42  C38 IM1 B 600      57.124  -0.881  18.203 -0.06 -0.06    +0.106 A 
DOCKED: ATOM     43  N39 IM1 B 600      57.437   0.025  19.170 -0.03 +0.23    -0.353 N 
DOCKED: ATOM     44  H39 IM1 B 600      58.355   0.236  19.562 -0.34 -0.17    +0.166 HD
DOCKED: ENDBRANCH  34  38
DOCKED: ENDBRANCH  32  34
DOCKED: ENDBRANCH   1  30
DOCKED: TORSDOF 15
DOCKED: TER
DOCKED: ENDMDL
________________________________________________________________________________

DPF> analysis                             # perform a ranked cluster analysis


		CLUSTER ANALYSIS OF CONFORMATIONS
		_________________________________

Number of conformations = 10

RMSD cluster analysis will be performed using the ligand atoms only (44 / 44 total atoms).

Outputting structurally similar clusters, ranked in order of increasing energy.


________________________________________________________________________________

Number of distinct conformational clusters found = 10,  out of 10 runs,
Using an rmsd-tolerance of 2.0 A


	CLUSTERING HISTOGRAM
	____________________

________________________________________________________________________________
     |           |     |           |     |                                    
Clus | Lowest    | Run | Mean      | Num | Histogram                          
-ter | Binding   |     | Binding   | in  |                                    
Rank | Energy    |     | Energy    | Clus|    5    10   15   20   25   30   35
_____|___________|_____|___________|_____|____:____|____:____|____:____|____:___
   1 |     -7.17 |  10 |     -7.17 |   1 |#
   2 |     -6.56 |   3 |     -6.56 |   1 |#
   3 |     -5.86 |   2 |     -5.86 |   1 |#
   4 |     -5.75 |   4 |     -5.75 |   1 |#
   5 |     -5.56 |   1 |     -5.56 |   1 |#
   6 |     -5.35 |   6 |     -5.35 |   1 |#
   7 |     -4.74 |   7 |     -4.74 |   1 |#
   8 |     -4.58 |   9 |     -4.58 |   1 |#
   9 |     -3.78 |   8 |     -3.78 |   1 |#
  10 |     -2.29 |   5 |     -2.29 |   1 |#
_____|___________|_____|___________|_____|______________________________________

	RMSD TABLE
	__________

_____________________________________________________________________
     |      |      |           |         |                 |
Rank | Sub- | Run  | Binding   | Cluster | Reference       | Grep
     | Rank |      | Energy    | RMSD    | RMSD            | Pattern
_____|______|______|___________|_________|_________________|___________
   1      1     10       -7.17      0.00      2.86           RANKING
   2      1      3       -6.56      0.00      2.04           RANKING
   3      1      2       -5.86      0.00      2.49           RANKING
   4      1      4       -5.75      0.00      2.71           RANKING
   5      1      1       -5.56      0.00      2.64           RANKING
   6      1      6       -5.35      0.00      2.59           RANKING
   7      1      7       -4.74      0.00      3.26           RANKING
   8      1      9       -4.58      0.00      3.22           RANKING
   9      1      8       -3.78      0.00      3.05           RANKING
  10      1      5       -2.29      0.00      4.13           RANKING
_______________________________________________________________________



	INFORMATION ENTROPY ANALYSIS FOR THIS CLUSTERING
	________________________________________________


Information entropy for this clustering = 1.00  (rmstol = 2.00 Angstrom)

_______________________________________________________________________


	STATISTICAL MECHANICAL ANALYSIS
	_______________________________


Partition function, Q =    10.09            at Temperature, T = 298.15 K
Free energy,        A ~ -1369.40 kcal/mol   at Temperature, T = 298.15 K
Internal energy,    U =    -5.17 kcal/mol   at Temperature, T = 298.15 K
Entropy,            S =     4.58 kcal/mol/K at Temperature, T = 298.15 K

_______________________________________________________________________


	LOWEST ENERGY DOCKED CONFORMATION from EACH CLUSTER
	___________________________________________________



Keeping original residue number (specified in the input PDBQ file) for outputting.

MODEL       10
USER    Run = 10
USER    Cluster Rank = 1
USER    Number of conformations in this cluster = 1
USER  
USER    RMSD from reference structure       = 2.861 A
USER  
USER    Estimated Free Energy of Binding    =   -7.17 kcal/mol  [=(1)+(2)+(3)-(4)]
USER    Estimated Inhibition Constant, Ki   =    5.60 uM (micromolar)  [Temperature = 298.15 K]
USER    
USER    (1) Final Intermolecular Energy     =  -11.64 kcal/mol
USER        vdW + Hbond + desolv Energy     =  -11.51 kcal/mol
USER        Electrostatic Energy            =   -0.13 kcal/mol
USER    (2) Final Total Internal Energy     =   -4.51 kcal/mol
USER    (3) Torsional Free Energy           =   +4.47 kcal/mol
USER    (4) Unbound System's Energy  [=(2)] =   -4.51 kcal/mol
USER    
USER    
USER  
USER    DPF = dock.dpf
USER    NEWDPF move	lig1tcw.pdbqt
USER    NEWDPF about	57.488000 2.573000 19.823000
USER    NEWDPF tran0	59.195925 4.067764 19.969852
USER    NEWDPF axisangle0	0.572299 -0.779870 -0.253529 156.497680
USER    NEWDPF quaternion0	0.560304 -0.763525 -0.248215 0.203662
USER    NEWDPF dihe0	122.75 51.36 -52.77 -123.87 -119.65 161.45 -33.22 -40.26 -33.85 -81.23 -171.41 -105.48 147.06 -136.52 -36.37 
USER  
USER                              x       y       z    vdW   Elec        q     RMS 
ATOM      1  C20 IM1 B 600      58.172   4.048  19.082 -0.32 -0.04    +0.084     2.861
ATOM      2  C19 IM1 B 600      59.463   3.605  19.669 -0.32 -0.03    +0.048     2.861
ATOM      3  C17 IM1 B 600      60.395   4.643  20.295 -0.30 -0.07    +0.142     2.861
ATOM      4  C9  IM1 B 600      59.803   5.145  21.607 -0.24 -0.04    +0.119     2.861
ATOM      5  N8  IM1 B 600      59.924   4.145  22.621 -0.10 +0.05    -0.329     2.861
ATOM      6  C6  IM1 B 600      59.125   3.988  23.659 -0.18 -0.01    +0.361     2.861
ATOM      7  O7  IM1 B 600      58.167   4.749  23.807 -0.28 +0.01    -0.238     2.861
ATOM      8  H8  IM1 B 600      60.702   3.491  22.533 +0.09 -0.01    +0.165     2.861
ATOM      9  O5  IM1 B 600      59.371   2.940  24.568 -0.29 -0.02    -0.294     2.861
ATOM     10  C1  IM1 B 600      58.777   1.655  24.739 -0.32 +0.01    +0.061     2.861
ATOM     11  C2  IM1 B 600      59.751   0.770  25.532 -0.30 +0.01    +0.046     2.861
ATOM     12  C3  IM1 B 600      58.711   1.137  23.295 -0.20 +0.01    +0.046     2.861
ATOM     13  C4  IM1 B 600      57.428   1.433  25.464 -0.21 +0.00    +0.046     2.861
ATOM     14  C10 IM1 B 600      60.496   6.327  22.213 -0.30 -0.03    +0.066     2.861
ATOM     15  C11 IM1 B 600      59.842   7.555  21.671 -0.26 +0.02    -0.056     2.861
ATOM     16  C12 IM1 B 600      59.007   7.435  20.566 -0.29 -0.00    +0.007     2.861
ATOM     17  C13 IM1 B 600      58.421   8.585  20.046 -0.36 -0.00    +0.001     2.861
ATOM     18  C14 IM1 B 600      58.682   9.845  20.648 -0.37 -0.00    +0.000     2.861
ATOM     19  C15 IM1 B 600      59.521   9.939  21.765 -0.37 -0.00    +0.001     2.861
ATOM     20  C16 IM1 B 600      60.103   8.791  22.280 -0.31 -0.00    +0.007     2.861
ATOM     21  O18 IM1 B 600      61.669   4.167  20.728 -0.20 +0.23    -0.393     2.861
ATOM     22  H18 IM1 B 600      62.033   4.949  21.126 -0.39 -0.19    +0.210     2.861
ATOM     23  C21 IM1 B 600      58.164   4.215  17.538 -0.47 -0.04    +0.052     2.861
ATOM     24  C22 IM1 B 600      58.250   5.667  17.162 -0.45 +0.03    -0.057     2.861
ATOM     25  C23 IM1 B 600      59.377   6.158  16.487 -0.53 -0.00    +0.007     2.861
ATOM     26  C24 IM1 B 600      59.416   7.501  16.109 -0.53 -0.00    +0.001     2.861
ATOM     27  C25 IM1 B 600      58.336   8.344  16.409 -0.32 -0.00    +0.000     2.861
ATOM     28  C26 IM1 B 600      57.211   7.830  17.092 -0.42 -0.00    +0.001     2.861
ATOM     29  C27 IM1 B 600      57.169   6.490  17.469 -0.44 -0.00    +0.007     2.861
ATOM     30  C28 IM1 B 600      57.029   3.117  19.354 -0.23 -0.09    +0.222     2.861
ATOM     31  O29 IM1 B 600      55.929   3.059  18.810 -0.81 +0.04    -0.273     2.861
ATOM     32  N30 IM1 B 600      57.389   2.336  20.309 -0.07 +0.11    -0.349     2.861
ATOM     33  H30 IM1 B 600      58.309   2.408  20.745 +0.07 -0.05    +0.163     2.861
ATOM     34  C31 IM1 B 600      56.444   1.379  20.717 -0.11 -0.02    +0.155     2.861
ATOM     35  C32 IM1 B 600      55.292   2.263  21.246 -0.28 -0.00    +0.007     2.861
ATOM     36  C33 IM1 B 600      54.064   1.567  21.687 -0.27 -0.00    +0.012     2.861
ATOM     37  C34 IM1 B 600      55.950   3.008  22.404 -0.30 -0.00    +0.012     2.861
ATOM     38  C35 IM1 B 600      56.290   0.560  19.479 -0.08 -0.03    +0.104     2.861
ATOM     39  N36 IM1 B 600      55.244   0.154  18.852 -0.02 +0.08    -0.353     2.861
ATOM     40  C37 IM1 B 600      55.760  -0.794  18.015 -0.04 -0.03    +0.106     2.861
ATOM     41  H36 IM1 B 600      54.277   0.461  18.953 +0.05 -0.03    +0.166     2.861
ATOM     42  C38 IM1 B 600      57.124  -0.881  18.203 -0.06 -0.06    +0.106     2.861
ATOM     43  N39 IM1 B 600      57.437   0.025  19.170 -0.03 +0.23    -0.353     2.861
ATOM     44  H39 IM1 B 600      58.355   0.236  19.562 -0.34 -0.17    +0.166     2.861
TER
ENDMDL
MODEL        3
USER    Run = 3
USER    Cluster Rank = 2
USER    Number of conformations in this cluster = 1
USER  
USER    RMSD from reference structure       = 2.044 A
USER  
USER    Estimated Free Energy of Binding    =   -6.56 kcal/mol  [=(1)+(2)+(3)-(4)]
USER    Estimated Inhibition Constant, Ki   =   15.48 uM (micromolar)  [Temperature = 298.15 K]
USER    
USER    (1) Final Intermolecular Energy     =  -11.04 kcal/mol
USER        vdW + Hbond + desolv Energy     =  -10.81 kcal/mol
USER        Electrostatic Energy            =   -0.22 kcal/mol
USER    (2) Final Total Internal Energy     =   -4.10 kcal/mol
USER    (3) Torsional Free Energy           =   +4.47 kcal/mol
USER    (4) Unbound System's Energy  [=(2)] =   -4.10 kcal/mol
USER    
USER    
USER  
USER    DPF = dock.dpf
USER    NEWDPF move	lig1tcw.pdbqt
USER    NEWDPF about	57.488000 2.573000 19.823000
USER    NEWDPF tran0	58.609117 2.683297 20.380594
USER    NEWDPF axisangle0	0.395337 -0.721682 -0.568228 38.980771
USER    NEWDPF quaternion0	0.131904 -0.240788 -0.189589 0.942697
USER    NEWDPF dihe0	-113.45 -20.25 13.68 172.70 179.95 93.87 30.29 -72.69 -136.64 -70.99 -38.04 43.95 139.09 -106.89 -32.14 
USER  
USER                              x       y       z    vdW   Elec        q     RMS 
ATOM      1  C20 IM1 B 600      59.199   3.904  20.388 -0.28 -0.04    +0.084     2.044
ATOM      2  C19 IM1 B 600      59.136   2.432  20.192 -0.21 -0.03    +0.048     2.044
ATOM      3  C17 IM1 B 600      58.200   1.600  21.069 -0.16 -0.03    +0.142     2.044
ATOM      4  C9  IM1 B 600      56.931   1.261  20.294 -0.13 -0.03    +0.119     2.044
ATOM      5  N8  IM1 B 600      57.237   0.405  19.192 -0.05 +0.20    -0.329     2.044
ATOM      6  C6  IM1 B 600      56.688   0.454  17.992 -0.07 -0.24    +0.361     2.044
ATOM      7  O7  IM1 B 600      55.831   1.304  17.752 -0.18 +0.12    -0.238     2.044
ATOM      8  H8  IM1 B 600      57.947  -0.312  19.347 -0.16 -0.13    +0.165     2.044
ATOM      9  O5  IM1 B 600      57.110  -0.457  17.003 -0.09 +0.23    -0.294     2.044
ATOM     10  C1  IM1 B 600      56.943  -0.485  15.587 -0.19 -0.05    +0.061     2.044
ATOM     11  C2  IM1 B 600      56.499  -1.898  15.177 -0.07 -0.02    +0.046     2.044
ATOM     12  C3  IM1 B 600      58.377  -0.260  15.089 -0.17 -0.06    +0.046     2.044
ATOM     13  C4  IM1 B 600      55.950   0.431  14.831 -0.26 -0.04    +0.046     2.044
ATOM     14  C10 IM1 B 600      55.904   0.479  21.055 -0.08 -0.01    +0.066     2.044
ATOM     15  C11 IM1 B 600      54.572   0.789  20.457 -0.14 +0.00    -0.056     2.044
ATOM     16  C12 IM1 B 600      53.991   2.023  20.724 -0.28 -0.00    +0.007     2.044
ATOM     17  C13 IM1 B 600      52.737   2.299  20.187 -0.25 -0.00    +0.001     2.044
ATOM     18  C14 IM1 B 600      52.083   1.326  19.384 -0.31 -0.00    +0.000     2.044
ATOM     19  C15 IM1 B 600      52.693   0.092  19.124 -0.21 -0.00    +0.001     2.044
ATOM     20  C16 IM1 B 600      53.942  -0.178  19.660 -0.11 -0.00    +0.007     2.044
ATOM     21  O18 IM1 B 600      58.663   0.299  21.428 -0.36 -0.15    -0.393     2.044
ATOM     22  H18 IM1 B 600      58.885  -0.060  20.577 -0.07 +0.05    +0.210     2.044
ATOM     23  C21 IM1 B 600      60.451   4.422  21.147 -0.33 -0.02    +0.052     2.044
ATOM     24  C22 IM1 B 600      60.059   5.439  22.181 -0.25 +0.02    -0.057     2.044
ATOM     25  C23 IM1 B 600      58.985   5.191  23.047 -0.35 -0.00    +0.007     2.044
ATOM     26  C24 IM1 B 600      58.666   6.131  24.028 -0.41 -0.00    +0.001     2.044
ATOM     27  C25 IM1 B 600      59.417   7.311  24.137 -0.51 -0.00    +0.000     2.044
ATOM     28  C26 IM1 B 600      60.494   7.543  23.252 -0.37 -0.00    +0.001     2.044
ATOM     29  C27 IM1 B 600      60.814   6.605  22.273 -0.28 -0.00    +0.007     2.044
ATOM     30  C28 IM1 B 600      59.197   4.689  19.110 -0.26 -0.10    +0.222     2.044
ATOM     31  O29 IM1 B 600      59.398   4.302  17.962 -0.83 +0.13    -0.273     2.044
ATOM     32  N30 IM1 B 600      58.940   5.911  19.412 -0.10 +0.16    -0.349     2.044
ATOM     33  H30 IM1 B 600      58.778   6.206  20.375 +0.00 -0.07    +0.163     2.044
ATOM     34  C31 IM1 B 600      58.894   6.818  18.338 -0.30 -0.06    +0.155     2.044
ATOM     35  C32 IM1 B 600      57.600   6.392  17.608 -0.48 -0.00    +0.007     2.044
ATOM     36  C33 IM1 B 600      56.417   7.262  17.785 -0.49 -0.00    +0.012     2.044
ATOM     37  C34 IM1 B 600      58.040   6.351  16.147 -0.56 -0.01    +0.012     2.044
ATOM     38  C35 IM1 B 600      58.993   8.128  19.045 -0.27 -0.04    +0.104     2.044
ATOM     39  N36 IM1 B 600      59.803   9.114  18.898 -0.12 +0.20    -0.353     2.044
ATOM     40  C37 IM1 B 600      59.580   9.842  20.032 -0.26 -0.05    +0.106     2.044
ATOM     41  H36 IM1 B 600      60.448   9.305  18.132 +0.10 -0.13    +0.166     2.044
ATOM     42  C38 IM1 B 600      58.612   9.220  20.794 -0.30 -0.02    +0.106     2.044
ATOM     43  N39 IM1 B 600      58.249   8.099  20.113 -0.15 +0.13    -0.353     2.044
ATOM     44  H39 IM1 B 600      57.555   7.399  20.377 -0.50 -0.10    +0.166     2.044
TER
ENDMDL
MODEL        2
USER    Run = 2
USER    Cluster Rank = 3
USER    Number of conformations in this cluster = 1
USER  
USER    RMSD from reference structure       = 2.494 A
USER  
USER    Estimated Free Energy of Binding    =   -5.86 kcal/mol  [=(1)+(2)+(3)-(4)]
USER    Estimated Inhibition Constant, Ki   =   50.86 uM (micromolar)  [Temperature = 298.15 K]
USER    
USER    (1) Final Intermolecular Energy     =  -10.33 kcal/mol
USER        vdW + Hbond + desolv Energy     =   -9.94 kcal/mol
USER        Electrostatic Energy            =   -0.40 kcal/mol
USER    (2) Final Total Internal Energy     =   -3.95 kcal/mol
USER    (3) Torsional Free Energy           =   +4.47 kcal/mol
USER    (4) Unbound System's Energy  [=(2)] =   -3.95 kcal/mol
USER    
USER    
USER  
USER    DPF = dock.dpf
USER    NEWDPF move	lig1tcw.pdbqt
USER    NEWDPF about	57.488000 2.573000 19.823000
USER    NEWDPF tran0	58.975023 2.908252 20.554850
USER    NEWDPF axisangle0	-0.515607 -0.809383 -0.281157 133.444792
USER    NEWDPF quaternion0	-0.473637 -0.743500 -0.258271 0.395186
USER    NEWDPF dihe0	-85.57 -28.27 -167.15 179.78 123.23 149.46 -50.43 111.69 41.86 -79.56 3.01 72.24 152.42 -42.33 16.75 
USER  
USER                              x       y       z    vdW   Elec        q     RMS 
ATOM      1  C20 IM1 B 600      59.745   4.024  20.541 -0.31 -0.04    +0.084     2.494
ATOM      2  C19 IM1 B 600      58.632   3.142  20.104 -0.27 -0.02    +0.048     2.494
ATOM      3  C17 IM1 B 600      58.181   1.999  21.013 -0.17 -0.03    +0.142     2.494
ATOM      4  C9  IM1 B 600      56.830   1.469  20.545 -0.13 -0.03    +0.119     2.494
ATOM      5  N8  IM1 B 600      57.000   0.605  19.419 -0.04 +0.16    -0.329     2.494
ATOM      6  C6  IM1 B 600      56.127   0.412  18.448 -0.05 -0.16    +0.361     2.494
ATOM      7  O7  IM1 B 600      55.053   1.015  18.469 -0.17 +0.06    -0.238     2.494
ATOM      8  H8  IM1 B 600      57.878   0.091  19.360 -0.14 -0.14    +0.165     2.494
ATOM      9  O5  IM1 B 600      56.450  -0.466  17.394 -0.06 +0.16    -0.294     2.494
ATOM     10  C1  IM1 B 600      55.971  -0.581  16.055 -0.14 -0.03    +0.061     2.494
ATOM     11  C2  IM1 B 600      55.922   0.823  15.433 -0.23 -0.05    +0.046     2.494
ATOM     12  C3  IM1 B 600      54.533  -1.071  16.270 -0.11 -0.01    +0.046     2.494
ATOM     13  C4  IM1 B 600      56.683  -1.424  14.969 -0.11 -0.02    +0.046     2.494
ATOM     14  C10 IM1 B 600      56.104   0.602  21.529 -0.08 -0.00    +0.066     2.494
ATOM     15  C11 IM1 B 600      55.593   1.490  22.614 -0.12 +0.00    -0.056     2.494
ATOM     16  C12 IM1 B 600      55.822   1.128  23.937 -0.11 +0.00    +0.007     2.494
ATOM     17  C13 IM1 B 600      55.321   1.945  24.947 -0.18 -0.00    +0.001     2.494
ATOM     18  C14 IM1 B 600      54.594   3.119  24.611 -0.29 -0.00    +0.000     2.494
ATOM     19  C15 IM1 B 600      54.383   3.465  23.271 -0.30 +0.00    +0.001     2.494
ATOM     20  C16 IM1 B 600      54.884   2.650  22.268 -0.28 +0.00    +0.007     2.494
ATOM     21  O18 IM1 B 600      58.973   0.813  20.978 -0.03 -0.03    -0.393     2.494
ATOM     22  H18 IM1 B 600      59.367   0.879  20.115 -0.32 -0.20    +0.210     2.494
ATOM     23  C21 IM1 B 600      60.569   4.674  19.397 -0.30 -0.02    +0.052     2.494
ATOM     24  C22 IM1 B 600      59.660   5.309  18.384 -0.31 +0.02    -0.057     2.494
ATOM     25  C23 IM1 B 600      59.477   6.699  18.372 -0.34 -0.00    +0.007     2.494
ATOM     26  C24 IM1 B 600      58.661   7.273  17.394 -0.41 -0.00    +0.001     2.494
ATOM     27  C25 IM1 B 600      58.032   6.458  16.441 -0.50 -0.00    +0.000     2.494
ATOM     28  C26 IM1 B 600      58.229   5.059  16.473 -0.52 -0.00    +0.001     2.494
ATOM     29  C27 IM1 B 600      59.043   4.485  17.447 -0.43 -0.00    +0.007     2.494
ATOM     30  C28 IM1 B 600      59.306   5.186  21.381 -0.18 -0.07    +0.222     2.494
ATOM     31  O29 IM1 B 600      58.224   5.383  21.927 -0.19 +0.08    -0.273     2.494
ATOM     32  N30 IM1 B 600      60.294   6.005  21.446 -0.07 +0.16    -0.349     2.494
ATOM     33  H30 IM1 B 600      61.182   5.818  20.980 -0.35 -0.12    +0.163     2.494
ATOM     34  C31 IM1 B 600      60.080   7.175  22.197 -0.26 -0.06    +0.155     2.494
ATOM     35  C32 IM1 B 600      61.007   6.954  23.414 -0.38 -0.00    +0.007     2.494
ATOM     36  C33 IM1 B 600      62.345   7.581  23.356 -0.49 -0.01    +0.012     2.494
ATOM     37  C34 IM1 B 600      60.182   7.520  24.567 -0.59 -0.00    +0.012     2.494
ATOM     38  C35 IM1 B 600      60.361   8.237  21.188 -0.21 -0.06    +0.104     2.494
ATOM     39  N36 IM1 B 600      61.395   8.464  20.458 -0.13 +0.32    -0.353     2.494
ATOM     40  C37 IM1 B 600      61.157   9.732  20.009 -0.27 -0.10    +0.106     2.494
ATOM     41  H36 IM1 B 600      62.189   7.855  20.264 -0.10 -0.21    +0.166     2.494
ATOM     42  C38 IM1 B 600      59.953  10.180  20.513 -0.25 -0.05    +0.106     2.494
ATOM     43  N39 IM1 B 600      59.458   9.171  21.281 -0.11 +0.11    -0.353     2.494
ATOM     44  H39 IM1 B 600      58.584   9.150  21.806 +0.08 -0.00    +0.166     2.494
TER
ENDMDL
MODEL        4
USER    Run = 4
USER    Cluster Rank = 4
USER    Number of conformations in this cluster = 1
USER  
USER    RMSD from reference structure       = 2.707 A
USER  
USER    Estimated Free Energy of Binding    =   -5.75 kcal/mol  [=(1)+(2)+(3)-(4)]
USER    Estimated Inhibition Constant, Ki   =   61.40 uM (micromolar)  [Temperature = 298.15 K]
USER    
USER    (1) Final Intermolecular Energy     =  -10.22 kcal/mol
USER        vdW + Hbond + desolv Energy     =  -10.07 kcal/mol
USER        Electrostatic Energy            =   -0.15 kcal/mol
USER    (2) Final Total Internal Energy     =   -3.71 kcal/mol
USER    (3) Torsional Free Energy           =   +4.47 kcal/mol
USER    (4) Unbound System's Energy  [=(2)] =   -3.71 kcal/mol
USER    
USER    
USER  
USER    DPF = dock.dpf
USER    NEWDPF move	lig1tcw.pdbqt
USER    NEWDPF about	57.488000 2.573000 19.823000
USER    NEWDPF tran0	58.131382 3.865905 20.407096
USER    NEWDPF axisangle0	-0.663501 0.746381 0.051795 -171.026973
USER    NEWDPF quaternion0	-0.661467 0.744094 0.051636 -0.078224
USER    NEWDPF dihe0	-138.79 -80.93 14.27 -138.42 28.64 -32.66 38.82 -180.00 -138.12 -20.92 49.33 -137.63 116.48 40.00 37.71 
USER  
USER                              x       y       z    vdW   Elec        q     RMS 
ATOM      1  C20 IM1 B 600      57.234   3.271  19.583 -0.28 -0.03    +0.084     2.707
ATOM      2  C19 IM1 B 600      58.492   3.372  20.368 -0.27 -0.02    +0.048     2.707
ATOM      3  C17 IM1 B 600      58.466   4.042  21.741 -0.21 -0.03    +0.142     2.707
ATOM      4  C9  IM1 B 600      59.246   5.352  21.692 -0.24 -0.04    +0.119     2.707
ATOM      5  N8  IM1 B 600      58.936   6.069  20.496 -0.09 +0.14    -0.329     2.707
ATOM      6  C6  IM1 B 600      59.585   5.988  19.349 -0.16 -0.16    +0.361     2.707
ATOM      7  O7  IM1 B 600      60.552   5.232  19.252 -0.60 +0.10    -0.238     2.707
ATOM      8  H8  IM1 B 600      58.138   6.704  20.532 -0.38 -0.09    +0.165     2.707
ATOM      9  O5  IM1 B 600      59.145   6.754  18.251 -0.20 +0.12    -0.294     2.707
ATOM     10  C1  IM1 B 600      58.614   6.394  16.978 -0.50 -0.03    +0.061     2.707
ATOM     11  C2  IM1 B 600      59.339   7.213  15.899 -0.58 -0.02    +0.046     2.707
ATOM     12  C3  IM1 B 600      57.167   6.895  17.081 -0.48 -0.02    +0.046     2.707
ATOM     13  C4  IM1 B 600      58.658   4.952  16.417 -0.54 -0.03    +0.046     2.707
ATOM     14  C10 IM1 B 600      58.916   6.336  22.772 -0.32 -0.01    +0.066     2.707
ATOM     15  C11 IM1 B 600      60.037   7.319  22.839 -0.30 +0.02    -0.056     2.707
ATOM     16  C12 IM1 B 600      59.734   8.675  22.913 -0.36 -0.00    +0.007     2.707
ATOM     17  C13 IM1 B 600      60.782   9.590  22.948 -0.34 -0.00    +0.001     2.707
ATOM     18  C14 IM1 B 600      62.125   9.129  22.909 -0.37 -0.00    +0.000     2.707
ATOM     19  C15 IM1 B 600      62.404   7.758  22.841 -0.40 -0.00    +0.001     2.707
ATOM     20  C16 IM1 B 600      61.358   6.849  22.807 -0.33 -0.00    +0.007     2.707
ATOM     21  O18 IM1 B 600      57.192   4.495  22.199 -0.12 +0.08    -0.393     2.707
ATOM     22  H18 IM1 B 600      57.089   5.296  21.698 -0.08 -0.12    +0.210     2.707
ATOM     23  C21 IM1 B 600      57.392   2.721  18.139 -0.35 -0.04    +0.052     2.707
ATOM     24  C22 IM1 B 600      56.634   1.434  17.977 -0.22 +0.04    -0.057     2.707
ATOM     25  C23 IM1 B 600      57.178   0.229  18.446 -0.12 -0.01    +0.007     2.707
ATOM     26  C24 IM1 B 600      56.437  -0.948  18.324 -0.06 -0.00    +0.001     2.707
ATOM     27  C25 IM1 B 600      55.165  -0.916  17.733 -0.07 -0.00    +0.000     2.707
ATOM     28  C26 IM1 B 600      54.638   0.308  17.265 -0.21 -0.00    +0.001     2.707
ATOM     29  C27 IM1 B 600      55.374   1.484  17.388 -0.15 -0.00    +0.007     2.707
ATOM     30  C28 IM1 B 600      56.200   2.379  20.202 -0.18 -0.04    +0.222     2.707
ATOM     31  O29 IM1 B 600      54.998   2.303  19.963 -0.61 -0.00    -0.273     2.707
ATOM     32  N30 IM1 B 600      56.795   1.658  21.084 -0.03 +0.05    -0.349     2.707
ATOM     33  H30 IM1 B 600      57.796   1.743  21.264 +0.06 -0.02    +0.163     2.707
ATOM     34  C31 IM1 B 600      55.987   0.745  21.786 -0.06 -0.01    +0.155     2.707
ATOM     35  C32 IM1 B 600      57.021  -0.296  22.272 -0.09 +0.00    +0.007     2.707
ATOM     36  C33 IM1 B 600      58.286   0.230  22.829 -0.14 +0.00    +0.012     2.707
ATOM     37  C34 IM1 B 600      56.237  -1.075  23.325 -0.03 +0.00    +0.012     2.707
ATOM     38  C35 IM1 B 600      55.279   1.644  22.743 -0.13 -0.00    +0.104     2.707
ATOM     39  N36 IM1 B 600      54.027   1.838  22.960 -0.10 +0.01    -0.353     2.707
ATOM     40  C37 IM1 B 600      54.037   2.985  23.701 -0.22 +0.00    +0.106     2.707
ATOM     41  H36 IM1 B 600      53.230   1.278  22.657 +0.04 -0.00    +0.166     2.707
ATOM     42  C38 IM1 B 600      55.340   3.401  23.886 -0.26 +0.00    +0.106     2.707
ATOM     43  N39 IM1 B 600      56.127   2.495  23.245 -0.07 +0.00    -0.353     2.707
ATOM     44  H39 IM1 B 600      57.145   2.484  23.175 +0.07 -0.00    +0.166     2.707
TER
ENDMDL
MODEL        1
USER    Run = 1
USER    Cluster Rank = 5
USER    Number of conformations in this cluster = 1
USER  
USER    RMSD from reference structure       = 2.637 A
USER  
USER    Estimated Free Energy of Binding    =   -5.56 kcal/mol  [=(1)+(2)+(3)-(4)]
USER    Estimated Inhibition Constant, Ki   =   83.35 uM (micromolar)  [Temperature = 298.15 K]
USER    
USER    (1) Final Intermolecular Energy     =  -10.04 kcal/mol
USER        vdW + Hbond + desolv Energy     =   -9.79 kcal/mol
USER        Electrostatic Energy            =   -0.25 kcal/mol
USER    (2) Final Total Internal Energy     =   -3.98 kcal/mol
USER    (3) Torsional Free Energy           =   +4.47 kcal/mol
USER    (4) Unbound System's Energy  [=(2)] =   -3.98 kcal/mol
USER    
USER    
USER  
USER    DPF = dock.dpf
USER    NEWDPF move	lig1tcw.pdbqt
USER    NEWDPF about	57.488000 2.573000 19.823000
USER    NEWDPF tran0	57.151586 3.083047 20.784626
USER    NEWDPF axisangle0	-0.643136 0.749524 0.156812 97.043345
USER    NEWDPF quaternion0	-0.481842 0.561548 0.117484 0.662337
USER    NEWDPF dihe0	123.54 160.54 -21.98 180.00 92.30 -15.58 -54.20 -4.01 -124.69 147.19 -9.94 -94.62 135.48 -16.79 -20.13 
USER  
USER                              x       y       z    vdW   Elec        q     RMS 
ATOM      1  C20 IM1 B 600      56.548   2.596  21.896 -0.21 -0.01    +0.084     2.637
ATOM      2  C19 IM1 B 600      57.494   2.576  20.751 -0.23 -0.01    +0.048     2.637
ATOM      3  C17 IM1 B 600      57.253   3.509  19.565 -0.26 -0.06    +0.142     2.637
ATOM      4  C9  IM1 B 600      58.171   3.125  18.410 -0.31 -0.09    +0.119     2.637
ATOM      5  N8  IM1 B 600      57.885   1.797  17.969 -0.09 +0.39    -0.329     2.637
ATOM      6  C6  IM1 B 600      56.858   1.427  17.227 -0.14 -0.35    +0.361     2.637
ATOM      7  O7  IM1 B 600      56.046   2.273  16.851 -0.03 +0.19    -0.238     2.637
ATOM      8  H8  IM1 B 600      58.536   1.065  18.254 -0.33 -0.36    +0.165     2.637
ATOM      9  O5  IM1 B 600      56.721   0.073  16.862 -0.11 +0.23    -0.294     2.637
ATOM     10  C1  IM1 B 600      56.034  -0.571  15.791 -0.15 -0.03    +0.061     2.637
ATOM     11  C2  IM1 B 600      56.016  -2.083  16.063 -0.04 -0.01    +0.046     2.637
ATOM     12  C3  IM1 B 600      56.967  -0.300  14.603 -0.20 -0.05    +0.046     2.637
ATOM     13  C4  IM1 B 600      54.565  -0.261  15.418 -0.22 -0.01    +0.046     2.637
ATOM     14  C10 IM1 B 600      58.008   3.939  17.161 -0.42 -0.06    +0.066     2.637
ATOM     15  C11 IM1 B 600      58.506   5.315  17.456 -0.43 +0.03    -0.056     2.637
ATOM     16  C12 IM1 B 600      58.132   6.355  16.613 -0.50 -0.00    +0.007     2.637
ATOM     17  C13 IM1 B 600      58.620   7.632  16.874 -0.44 -0.00    +0.001     2.637
ATOM     18  C14 IM1 B 600      59.479   7.846  17.985 -0.35 -0.00    +0.000     2.637
ATOM     19  C15 IM1 B 600      59.836   6.783  18.824 -0.31 -0.00    +0.001     2.637
ATOM     20  C16 IM1 B 600      59.347   5.512  18.560 -0.36 -0.00    +0.007     2.637
ATOM     21  O18 IM1 B 600      55.972   3.422  18.942 -0.71 +0.03    -0.393     2.637
ATOM     22  H18 IM1 B 600      56.080   4.019  18.210 +0.08 -0.05    +0.210     2.637
ATOM     23  C21 IM1 B 600      55.750   1.282  22.124 -0.13 -0.00    +0.052     2.637
ATOM     24  C22 IM1 B 600      54.804   1.033  20.983 -0.14 +0.00    -0.057     2.637
ATOM     25  C23 IM1 B 600      53.768   1.938  20.713 -0.31 -0.00    +0.007     2.637
ATOM     26  C24 IM1 B 600      52.928   1.709  19.622 -0.35 -0.00    +0.001     2.637
ATOM     27  C25 IM1 B 600      53.124   0.579  18.812 -0.26 -0.00    +0.000     2.637
ATOM     28  C26 IM1 B 600      54.172  -0.321  19.105 -0.11 -0.00    +0.001     2.637
ATOM     29  C27 IM1 B 600      55.013  -0.093  20.192 -0.07 -0.00    +0.007     2.637
ATOM     30  C28 IM1 B 600      57.200   2.861  23.220 -0.17 -0.00    +0.222     2.637
ATOM     31  O29 IM1 B 600      56.836   2.527  24.344 -0.13 -0.01    -0.273     2.637
ATOM     32  N30 IM1 B 600      58.267   3.539  22.992 -0.09 +0.02    -0.349     2.637
ATOM     33  H30 IM1 B 600      58.545   3.805  22.047 +0.08 -0.03    +0.163     2.637
ATOM     34  C31 IM1 B 600      59.029   3.893  24.120 -0.27 -0.00    +0.155     2.637
ATOM     35  C32 IM1 B 600      60.127   2.805  24.124 -0.25 +0.00    +0.007     2.637
ATOM     36  C33 IM1 B 600      59.726   1.453  24.569 -0.33 +0.00    +0.012     2.637
ATOM     37  C34 IM1 B 600      60.589   2.793  22.669 -0.39 +0.00    +0.012     2.637
ATOM     38  C35 IM1 B 600      59.349   5.321  23.831 -0.29 -0.01    +0.104     2.637
ATOM     39  N36 IM1 B 600      59.353   6.361  24.586 -0.25 +0.04    -0.353     2.637
ATOM     40  C37 IM1 B 600      59.410   7.378  23.675 -0.37 -0.02    +0.106     2.637
ATOM     41  H36 IM1 B 600      59.320   6.414  25.603 +0.06 -0.01    +0.166     2.637
ATOM     42  C38 IM1 B 600      59.449   6.851  22.400 -0.26 -0.03    +0.106     2.637
ATOM     43  N39 IM1 B 600      59.409   5.498  22.542 -0.10 +0.08    -0.353     2.637
ATOM     44  H39 IM1 B 600      59.424   4.788  21.810 +0.09 -0.05    +0.166     2.637
TER
ENDMDL
MODEL        6
USER    Run = 6
USER    Cluster Rank = 6
USER    Number of conformations in this cluster = 1
USER  
USER    RMSD from reference structure       = 2.589 A
USER  
USER    Estimated Free Energy of Binding    =   -5.35 kcal/mol  [=(1)+(2)+(3)-(4)]
USER    Estimated Inhibition Constant, Ki   =  120.29 uM (micromolar)  [Temperature = 298.15 K]
USER    
USER    (1) Final Intermolecular Energy     =   -9.82 kcal/mol
USER        vdW + Hbond + desolv Energy     =   -9.75 kcal/mol
USER        Electrostatic Energy            =   -0.07 kcal/mol
USER    (2) Final Total Internal Energy     =   -6.43 kcal/mol
USER    (3) Torsional Free Energy           =   +4.47 kcal/mol
USER    (4) Unbound System's Energy  [=(2)] =   -6.43 kcal/mol
USER    
USER    
USER  
USER    DPF = dock.dpf
USER    NEWDPF move	lig1tcw.pdbqt
USER    NEWDPF about	57.488000 2.573000 19.823000
USER    NEWDPF tran0	59.567672 2.980857 20.219261
USER    NEWDPF axisangle0	-0.052642 -0.495612 -0.866948 -164.607090
USER    NEWDPF quaternion0	-0.052167 -0.491147 -0.859138 -0.133925
USER    NEWDPF dihe0	59.16 -122.35 -179.86 55.94 -14.50 -94.31 -71.51 -26.42 48.04 -61.53 22.19 -151.24 158.37 -1.86 -153.85 
USER  
USER                              x       y       z    vdW   Elec        q     RMS 
ATOM      1  C20 IM1 B 600      58.977   2.992  21.439 -0.23 -0.02    +0.084     2.589
ATOM      2  C19 IM1 B 600      59.022   3.073  19.956 -0.28 -0.03    +0.048     2.589
ATOM      3  C17 IM1 B 600      57.952   3.878  19.218 -0.28 -0.07    +0.142     2.589
ATOM      4  C9  IM1 B 600      57.780   3.334  17.804 -0.36 -0.10    +0.119     2.589
ATOM      5  N8  IM1 B 600      56.872   2.231  17.804 -0.16 +0.25    -0.329     2.589
ATOM      6  C6  IM1 B 600      57.062   1.066  17.212 -0.12 -0.37    +0.361     2.589
ATOM      7  O7  IM1 B 600      58.108   0.864  16.594 -0.14 +0.40    -0.238     2.589
ATOM      8  H8  IM1 B 600      55.995   2.355  18.309 +0.06 -0.06    +0.165     2.589
ATOM      9  O5  IM1 B 600      56.071   0.069  17.316 -0.08 +0.16    -0.294     2.589
ATOM     10  C1  IM1 B 600      54.828  -0.125  16.646 -0.18 -0.02    +0.061     2.589
ATOM     11  C2  IM1 B 600      54.961   0.401  15.209 -0.27 -0.02    +0.046     2.589
ATOM     12  C3  IM1 B 600      53.893   0.810  17.425 -0.24 -0.01    +0.046     2.589
ATOM     13  C4  IM1 B 600      54.176  -1.517  16.454 -0.08 -0.01    +0.046     2.589
ATOM     14  C10 IM1 B 600      57.161   4.282  16.823 -0.27 -0.06    +0.066     2.589
ATOM     15  C11 IM1 B 600      57.928   5.561  16.891 -0.45 +0.03    -0.056     2.589
ATOM     16  C12 IM1 B 600      59.012   5.736  16.039 -0.52 -0.00    +0.007     2.589
ATOM     17  C13 IM1 B 600      59.742   6.918  16.123 -0.42 -0.00    +0.001     2.589
ATOM     18  C14 IM1 B 600      59.369   7.912  17.067 -0.42 -0.00    +0.000     2.589
ATOM     19  C15 IM1 B 600      58.268   7.715  17.911 -0.39 -0.00    +0.001     2.589
ATOM     20  C16 IM1 B 600      57.544   6.536  17.823 -0.41 -0.00    +0.007     2.589
ATOM     21  O18 IM1 B 600      56.621   3.770  19.721 -0.53 +0.10    -0.393     2.589
ATOM     22  H18 IM1 B 600      56.432   4.675  19.941 -0.39 -0.12    +0.210     2.589
ATOM     23  C21 IM1 B 600      58.116   4.078  22.140 -0.27 -0.01    +0.052     2.589
ATOM     24  C22 IM1 B 600      58.941   5.299  22.434 -0.28 +0.01    -0.057     2.589
ATOM     25  C23 IM1 B 600      58.760   6.004  23.632 -0.41 -0.00    +0.007     2.589
ATOM     26  C24 IM1 B 600      59.567   7.110  23.904 -0.47 -0.00    +0.001     2.589
ATOM     27  C25 IM1 B 600      60.544   7.507  22.979 -0.34 -0.00    +0.000     2.589
ATOM     28  C26 IM1 B 600      60.707   6.785  21.776 -0.26 -0.00    +0.001     2.589
ATOM     29  C27 IM1 B 600      59.904   5.680  21.504 -0.26 -0.00    +0.007     2.589
ATOM     30  C28 IM1 B 600      58.429   1.698  21.962 -0.14 +0.01    +0.222     2.589
ATOM     31  O29 IM1 B 600      58.693   1.110  23.008 -0.15 -0.09    -0.273     2.589
ATOM     32  N30 IM1 B 600      57.586   1.261  21.096 -0.05 +0.05    -0.349     2.589
ATOM     33  H30 IM1 B 600      57.387   1.770  20.234 +0.06 -0.06    +0.163     2.589
ATOM     34  C31 IM1 B 600      56.955   0.043  21.405 -0.07 -0.00    +0.155     2.589
ATOM     35  C32 IM1 B 600      55.465   0.379  21.168 -0.09 -0.00    +0.007     2.589
ATOM     36  C33 IM1 B 600      55.159   1.739  20.673 -0.25 -0.00    +0.012     2.589
ATOM     37  C34 IM1 B 600      55.041  -0.684  20.160 -0.05 -0.00    +0.012     2.589
ATOM     38  C35 IM1 B 600      57.688  -0.909  20.520 -0.08 -0.01    +0.104     2.589
ATOM     39  N36 IM1 B 600      57.964  -0.863  19.266 +0.01 +0.22    -0.353     2.589
ATOM     40  C37 IM1 B 600      58.349  -2.148  19.008 -0.06 -0.04    +0.106     2.589
ATOM     41  H36 IM1 B 600      57.909  -0.071  18.626 -0.34 -0.19    +0.166     2.589
ATOM     42  C38 IM1 B 600      58.283  -2.889  20.171 -0.06 +0.00    +0.106     2.589
ATOM     43  N39 IM1 B 600      57.847  -2.042  21.142 -0.04 -0.06    -0.353     2.589
ATOM     44  H39 IM1 B 600      57.683  -2.246  22.128 +0.01 +0.04    +0.166     2.589
TER
ENDMDL
MODEL        7
USER    Run = 7
USER    Cluster Rank = 7
USER    Number of conformations in this cluster = 1
USER  
USER    RMSD from reference structure       = 3.259 A
USER  
USER    Estimated Free Energy of Binding    =   -4.74 kcal/mol  [=(1)+(2)+(3)-(4)]
USER    Estimated Inhibition Constant, Ki   =  336.56 uM (micromolar)  [Temperature = 298.15 K]
USER    
USER    (1) Final Intermolecular Energy     =   -9.21 kcal/mol
USER        vdW + Hbond + desolv Energy     =   -9.07 kcal/mol
USER        Electrostatic Energy            =   -0.14 kcal/mol
USER    (2) Final Total Internal Energy     =   -4.40 kcal/mol
USER    (3) Torsional Free Energy           =   +4.47 kcal/mol
USER    (4) Unbound System's Energy  [=(2)] =   -4.40 kcal/mol
USER    
USER    
USER  
USER    DPF = dock.dpf
USER    NEWDPF move	lig1tcw.pdbqt
USER    NEWDPF about	57.488000 2.573000 19.823000
USER    NEWDPF tran0	55.323342 2.603000 17.785176
USER    NEWDPF axisangle0	0.776913 -0.615056 0.134582 -131.231837
USER    NEWDPF quaternion0	0.707611 -0.560192 0.122577 -0.412851
USER    NEWDPF dihe0	-128.24 1.19 -115.33 -103.67 145.40 -71.79 137.30 -52.27 -4.50 -58.74 -172.98 166.76 -149.57 -65.02 85.91 
USER  
USER                              x       y       z    vdW   Elec        q     RMS 
ATOM      1  C20 IM1 B 600      54.666   1.524  18.277 -0.27 -0.02    +0.084     3.259
ATOM      2  C19 IM1 B 600      55.858   2.329  17.906 -0.20 -0.02    +0.048     3.259
ATOM      3  C17 IM1 B 600      56.422   3.338  18.907 -0.24 -0.04    +0.142     3.259
ATOM      4  C9  IM1 B 600      57.944   3.353  18.824 -0.30 -0.07    +0.119     3.259
ATOM      5  N8  IM1 B 600      58.429   4.697  18.859 -0.14 +0.16    -0.329     3.259
ATOM      6  C6  IM1 B 600      59.285   5.238  18.013 -0.21 -0.14    +0.361     3.259
ATOM      7  O7  IM1 B 600      59.731   4.561  17.085 -0.63 +0.07    -0.238     3.259
ATOM      8  H8  IM1 B 600      58.081   5.294  19.610 -0.12 -0.09    +0.165     3.259
ATOM      9  O5  IM1 B 600      59.657   6.588  18.175 -0.23 +0.11    -0.294     3.259
ATOM     10  C1  IM1 B 600      59.023   7.812  17.810 -0.39 -0.02    +0.061     3.259
ATOM     11  C2  IM1 B 600      58.279   8.360  19.037 -0.38 -0.02    +0.046     3.259
ATOM     12  C3  IM1 B 600      57.986   7.341  16.780 -0.48 -0.02    +0.046     3.259
ATOM     13  C4  IM1 B 600      59.798   9.045  17.285 -0.45 -0.02    +0.046     3.259
ATOM     14  C10 IM1 B 600      58.656   2.706  19.973 -0.25 -0.04    +0.066     3.259
ATOM     15  C11 IM1 B 600      59.099   3.793  20.894 -0.22 +0.02    -0.056     3.259
ATOM     16  C12 IM1 B 600      60.456   4.088  20.976 -0.33 -0.00    +0.007     3.259
ATOM     17  C13 IM1 B 600      60.869   5.084  21.856 -0.28 -0.00    +0.001     3.259
ATOM     18  C14 IM1 B 600      59.908   5.775  22.643 -0.31 -0.00    +0.000     3.259
ATOM     19  C15 IM1 B 600      58.547   5.464  22.537 -0.32 -0.00    +0.001     3.259
ATOM     20  C16 IM1 B 600      58.139   4.472  21.659 -0.22 -0.00    +0.007     3.259
ATOM     21  O18 IM1 B 600      56.116   4.710  18.660 -0.14 +0.11    -0.393     3.259
ATOM     22  H18 IM1 B 600      56.601   4.867  17.859 +0.08 -0.09    +0.210     3.259
ATOM     23  C21 IM1 B 600      54.716   0.029  17.860 -0.17 -0.01    +0.052     3.259
ATOM     24  C22 IM1 B 600      53.656  -0.272  16.839 -0.18 +0.01    -0.057     3.259
ATOM     25  C23 IM1 B 600      52.651  -1.209  17.117 -0.13 -0.00    +0.007     3.259
ATOM     26  C24 IM1 B 600      51.651  -1.441  16.172 -0.17 +0.00    +0.001     3.259
ATOM     27  C25 IM1 B 600      51.663  -0.741  14.955 -0.33 +0.00    +0.000     3.259
ATOM     28  C26 IM1 B 600      52.686   0.197  14.694 -0.38 +0.00    +0.001     3.259
ATOM     29  C27 IM1 B 600      53.684   0.431  15.637 -0.27 -0.00    +0.007     3.259
ATOM     30  C28 IM1 B 600      54.395   1.483  19.751 -0.22 -0.02    +0.222     3.259
ATOM     31  O29 IM1 B 600      53.500   2.030  20.390 -0.29 +0.01    -0.273     3.259
ATOM     32  N30 IM1 B 600      55.299   0.744  20.286 -0.02 +0.04    -0.349     3.259
ATOM     33  H30 IM1 B 600      56.033   0.303  19.732 +0.05 -0.04    +0.163     3.259
ATOM     34  C31 IM1 B 600      55.219   0.579  21.681 -0.07 -0.01    +0.155     3.259
ATOM     35  C32 IM1 B 600      55.471   2.016  22.193 -0.23 -0.00    +0.007     3.259
ATOM     36  C33 IM1 B 600      54.458   2.585  23.109 -0.31 -0.00    +0.012     3.259
ATOM     37  C34 IM1 B 600      56.827   1.890  22.882 -0.17 +0.00    +0.012     3.259
ATOM     38  C35 IM1 B 600      53.888  -0.077  21.830 -0.07 -0.00    +0.104     3.259
ATOM     39  N36 IM1 B 600      52.746   0.388  22.194 -0.06 +0.01    -0.353     3.259
ATOM     40  C37 IM1 B 600      52.034  -0.753  22.435 -0.08 -0.00    +0.106     3.259
ATOM     41  H36 IM1 B 600      52.448   1.359  22.281 +0.06 -0.00    +0.166     3.259
ATOM     42  C38 IM1 B 600      52.827  -1.853  22.178 -0.02 -0.00    +0.106     3.259
ATOM     43  N39 IM1 B 600      54.036  -1.370  21.781 +0.01 +0.01    -0.353     3.259
ATOM     44  H39 IM1 B 600      54.865  -1.898  21.509 +0.01 -0.00    +0.166     3.259
TER
ENDMDL
MODEL        9
USER    Run = 9
USER    Cluster Rank = 8
USER    Number of conformations in this cluster = 1
USER  
USER    RMSD from reference structure       = 3.219 A
USER  
USER    Estimated Free Energy of Binding    =   -4.58 kcal/mol  [=(1)+(2)+(3)-(4)]
USER    Estimated Inhibition Constant, Ki   =  439.01 uM (micromolar)  [Temperature = 298.15 K]
USER    
USER    (1) Final Intermolecular Energy     =   -9.05 kcal/mol
USER        vdW + Hbond + desolv Energy     =   -8.95 kcal/mol
USER        Electrostatic Energy            =   -0.11 kcal/mol
USER    (2) Final Total Internal Energy     =   -4.83 kcal/mol
USER    (3) Torsional Free Energy           =   +4.47 kcal/mol
USER    (4) Unbound System's Energy  [=(2)] =   -4.83 kcal/mol
USER    
USER    
USER  
USER    DPF = dock.dpf
USER    NEWDPF move	lig1tcw.pdbqt
USER    NEWDPF about	57.488000 2.573000 19.823000
USER    NEWDPF tran0	56.425052 1.188219 19.265663
USER    NEWDPF axisangle0	0.419841 -0.020278 0.907371 -140.742215
USER    NEWDPF quaternion0	0.395444 -0.019099 0.854642 -0.335927
USER    NEWDPF dihe0	114.94 -83.12 -144.12 -76.53 -170.30 -117.47 38.73 -62.79 -130.98 -58.17 3.16 50.07 -158.66 -108.89 174.11 
USER  
USER                              x       y       z    vdW   Elec        q     RMS 
ATOM      1  C20 IM1 B 600      55.981   0.807  20.488 -0.10 -0.01    +0.084     3.219
ATOM      2  C19 IM1 B 600      56.441   1.771  19.455 -0.22 -0.02    +0.048     3.219
ATOM      3  C17 IM1 B 600      56.416   3.268  19.764 -0.16 -0.03    +0.142     3.219
ATOM      4  C9  IM1 B 600      57.809   3.735  20.173 -0.23 -0.05    +0.119     3.219
ATOM      5  N8  IM1 B 600      58.203   4.863  19.391 -0.11 +0.16    -0.329     3.219
ATOM      6  C6  IM1 B 600      59.337   4.993  18.729 -0.20 -0.15    +0.361     3.219
ATOM      7  O7  IM1 B 600      60.162   4.080  18.754 -0.87 +0.10    -0.238     3.219
ATOM      8  H8  IM1 B 600      57.546   5.642  19.340 -0.42 -0.11    +0.165     3.219
ATOM      9  O5  IM1 B 600      59.574   6.169  17.989 -0.30 +0.11    -0.294     3.219
ATOM     10  C1  IM1 B 600      58.823   6.837  16.977 -0.48 -0.02    +0.061     3.219
ATOM     11  C2  IM1 B 600      57.555   7.424  17.618 -0.46 -0.02    +0.046     3.219
ATOM     12  C3  IM1 B 600      58.414   5.676  16.061 -0.59 -0.03    +0.046     3.219
ATOM     13  C4  IM1 B 600      59.380   8.020  16.149 -0.53 -0.02    +0.046     3.219
ATOM     14  C10 IM1 B 600      57.930   4.238  21.580 -0.23 -0.02    +0.066     3.219
ATOM     15  C11 IM1 B 600      59.379   4.223  21.937 -0.22 +0.01    -0.056     3.219
ATOM     16  C12 IM1 B 600      60.038   3.001  22.003 -0.30 -0.00    +0.007     3.219
ATOM     17  C13 IM1 B 600      61.383   2.988  22.362 -0.39 +0.00    +0.001     3.219
ATOM     18  C14 IM1 B 600      62.049   4.210  22.650 -0.31 -0.00    +0.000     3.219
ATOM     19  C15 IM1 B 600      61.364   5.429  22.570 -0.26 -0.00    +0.001     3.219
ATOM     20  C16 IM1 B 600      60.025   5.437  22.211 -0.28 -0.00    +0.007     3.219
ATOM     21  O18 IM1 B 600      56.144   4.135  18.664 -0.46 +0.07    -0.393     3.219
ATOM     22  H18 IM1 B 600      56.116   4.980  19.097 -0.50 -0.09    +0.210     3.219
ATOM     23  C21 IM1 B 600      56.607   0.993  21.898 -0.10 -0.00    +0.052     3.219
ATOM     24  C22 IM1 B 600      57.241  -0.285  22.369 -0.08 -0.01    -0.057     3.219
ATOM     25  C23 IM1 B 600      57.576  -0.453  23.720 -0.09 +0.00    +0.007     3.219
ATOM     26  C24 IM1 B 600      58.124  -1.665  24.143 -0.07 +0.00    +0.001     3.219
ATOM     27  C25 IM1 B 600      58.338  -2.697  23.217 -0.06 +0.00    +0.000     3.219
ATOM     28  C26 IM1 B 600      57.996  -2.506  21.860 -0.07 +0.00    +0.001     3.219
ATOM     29  C27 IM1 B 600      57.447  -1.298  21.436 -0.08 +0.00    +0.007     3.219
ATOM     30  C28 IM1 B 600      54.503   0.841  20.738 -0.12 -0.02    +0.222     3.219
ATOM     31  O29 IM1 B 600      53.665   1.638  20.324 -0.25 +0.01    -0.273     3.219
ATOM     32  N30 IM1 B 600      54.222  -0.151  21.504 -0.01 +0.01    -0.349     3.219
ATOM     33  H30 IM1 B 600      54.939  -0.797  21.836 +0.03 -0.00    +0.163     3.219
ATOM     34  C31 IM1 B 600      52.868  -0.294  21.860 -0.09 -0.00    +0.155     3.219
ATOM     35  C32 IM1 B 600      52.471  -1.586  21.110 -0.06 -0.00    +0.007     3.219
ATOM     36  C33 IM1 B 600      53.449  -2.695  21.126 -0.01 -0.00    +0.012     3.219
ATOM     37  C34 IM1 B 600      51.171  -1.986  21.803 -0.05 -0.00    +0.012     3.219
ATOM     38  C35 IM1 B 600      52.942  -0.251  23.349 -0.08 -0.00    +0.104     3.219
ATOM     39  N36 IM1 B 600      52.271   0.422  24.214 -0.06 +0.01    -0.353     3.219
ATOM     40  C37 IM1 B 600      53.020   0.264  25.346 -0.08 -0.00    +0.106     3.219
ATOM     41  H36 IM1 B 600      51.403   0.942  24.089 +0.03 -0.01    +0.166     3.219
ATOM     42  C38 IM1 B 600      54.115  -0.528  25.065 -0.03 -0.00    +0.106     3.219
ATOM     43  N39 IM1 B 600      54.029  -0.849  23.745 -0.00 +0.00    -0.353     3.219
ATOM     44  H39 IM1 B 600      54.666  -1.424  23.195 +0.01 +0.00    +0.166     3.219
TER
ENDMDL
MODEL        8
USER    Run = 8
USER    Cluster Rank = 9
USER    Number of conformations in this cluster = 1
USER  
USER    RMSD from reference structure       = 3.046 A
USER  
USER    Estimated Free Energy of Binding    =   -3.78 kcal/mol  [=(1)+(2)+(3)-(4)]
USER    Estimated Inhibition Constant, Ki   =    1.71 mM (millimolar)  [Temperature = 298.15 K]
USER    
USER    (1) Final Intermolecular Energy     =   -8.25 kcal/mol
USER        vdW + Hbond + desolv Energy     =   -8.10 kcal/mol
USER        Electrostatic Energy            =   -0.15 kcal/mol
USER    (2) Final Total Internal Energy     =   -4.49 kcal/mol
USER    (3) Torsional Free Energy           =   +4.47 kcal/mol
USER    (4) Unbound System's Energy  [=(2)] =   -4.49 kcal/mol
USER    
USER    
USER  
USER    DPF = dock.dpf
USER    NEWDPF move	lig1tcw.pdbqt
USER    NEWDPF about	57.488000 2.573000 19.823000
USER    NEWDPF tran0	56.393440 3.091679 22.086680
USER    NEWDPF axisangle0	-0.875078 -0.475983 0.087628 32.898135
USER    NEWDPF quaternion0	-0.247790 -0.134781 0.024813 0.959072
USER    NEWDPF dihe0	137.09 -179.53 72.65 -104.17 167.06 179.85 34.74 6.31 70.19 150.53 -11.24 -158.73 18.01 -23.34 -163.47 
USER  
USER                              x       y       z    vdW   Elec        q     RMS 
ATOM      1  C20 IM1 B 600      57.455   3.527  22.809 -0.27 -0.01    +0.084     3.046
ATOM      2  C19 IM1 B 600      56.770   2.752  21.742 -0.23 -0.01    +0.048     3.046
ATOM      3  C17 IM1 B 600      57.498   1.581  21.083 -0.14 -0.02    +0.142     3.046
ATOM      4  C9  IM1 B 600      56.649   1.015  19.950 -0.12 -0.04    +0.119     3.046
ATOM      5  N8  IM1 B 600      55.355   0.650  20.435 -0.02 +0.04    -0.329     3.046
ATOM      6  C6  IM1 B 600      54.346   1.472  20.656 -0.14 -0.02    +0.361     3.046
ATOM      7  O7  IM1 B 600      54.484   2.675  20.434 -0.33 -0.03    -0.238     3.046
ATOM      8  H8  IM1 B 600      55.197  -0.339  20.628 +0.04 -0.01    +0.165     3.046
ATOM      9  O5  IM1 B 600      53.123   0.952  21.124 -0.14 +0.01    -0.294     3.046
ATOM     10  C1  IM1 B 600      52.028   0.322  20.462 -0.23 -0.00    +0.061     3.046
ATOM     11  C2  IM1 B 600      51.235   1.395  19.702 -0.40 -0.01    +0.046     3.046
ATOM     12  C3  IM1 B 600      51.179  -0.169  21.643 -0.16 -0.00    +0.046     3.046
ATOM     13  C4  IM1 B 600      52.206  -0.799  19.410 -0.14 -0.00    +0.046     3.046
ATOM     14  C10 IM1 B 600      56.336   1.974  18.842 -0.26 -0.03    +0.066     3.046
ATOM     15  C11 IM1 B 600      56.003   1.166  17.632 -0.21 +0.03    -0.056     3.046
ATOM     16  C12 IM1 B 600      57.036   0.763  16.793 -0.23 -0.01    +0.007     3.046
ATOM     17  C13 IM1 B 600      56.720   0.032  15.651 -0.21 -0.00    +0.001     3.046
ATOM     18  C14 IM1 B 600      55.364  -0.286  15.369 -0.19 -0.00    +0.000     3.046
ATOM     19  C15 IM1 B 600      54.342   0.126  16.234 -0.22 -0.00    +0.001     3.046
ATOM     20  C16 IM1 B 600      54.661   0.853  17.370 -0.23 -0.00    +0.007     3.046
ATOM     21  O18 IM1 B 600      58.707   1.896  20.394 -0.12 +0.20    -0.393     3.046
ATOM     22  H18 IM1 B 600      58.813   1.128  19.845 -0.19 -0.23    +0.210     3.046
ATOM     23  C21 IM1 B 600      58.517   2.741  23.626 -0.29 +0.00    +0.052     3.046
ATOM     24  C22 IM1 B 600      57.910   1.512  24.240 -0.19 -0.01    -0.057     3.046
ATOM     25  C23 IM1 B 600      58.563   0.275  24.140 -0.15 +0.00    +0.007     3.046
ATOM     26  C24 IM1 B 600      58.002  -0.846  24.755 -0.09 +0.00    +0.001     3.046
ATOM     27  C25 IM1 B 600      56.795  -0.727  25.460 -0.05 +0.00    +0.000     3.046
ATOM     28  C26 IM1 B 600      56.153   0.528  25.546 -0.11 +0.00    +0.001     3.046
ATOM     29  C27 IM1 B 600      56.711   1.648  24.934 -0.17 +0.00    +0.007     3.046
ATOM     30  C28 IM1 B 600      58.196   4.729  22.307 -0.21 -0.05    +0.222     3.046
ATOM     31  O29 IM1 B 600      58.317   5.837  22.823 -0.26 +0.04    -0.273     3.046
ATOM     32  N30 IM1 B 600      58.721   4.412  21.178 -0.07 +0.11    -0.349     3.046
ATOM     33  H30 IM1 B 600      58.603   3.483  20.771 +0.08 -0.06    +0.163     3.046
ATOM     34  C31 IM1 B 600      59.467   5.417  20.537 -0.23 -0.06    +0.155     3.046
ATOM     35  C32 IM1 B 600      60.913   5.068  20.957 -0.22 -0.00    +0.007     3.046
ATOM     36  C33 IM1 B 600      61.176   4.952  22.408 -0.36 -0.00    +0.012     3.046
ATOM     37  C34 IM1 B 600      61.154   3.740  20.245 -0.44 -0.01    +0.012     3.046
ATOM     38  C35 IM1 B 600      59.012   5.274  19.123 -0.27 -0.05    +0.104     3.046
ATOM     39  N36 IM1 B 600      58.564   4.261  18.472 -0.17 +0.20    -0.353     3.046
ATOM     40  C37 IM1 B 600      58.638   4.693  17.179 -0.42 -0.07    +0.106     3.046
ATOM     41  H36 IM1 B 600      58.237   3.363  18.829 +0.08 -0.11    +0.166     3.046
ATOM     42  C38 IM1 B 600      59.133   5.981  17.152 -0.40 -0.04    +0.106     3.046
ATOM     43  N39 IM1 B 600      59.364   6.330  18.448 -0.13 +0.14    -0.353     3.046
ATOM     44  H39 IM1 B 600      59.728   7.213  18.806 +0.10 -0.07    +0.166     3.046
TER
ENDMDL
MODEL        5
USER    Run = 5
USER    Cluster Rank = 10
USER    Number of conformations in this cluster = 1
USER  
USER    RMSD from reference structure       = 4.132 A
USER  
USER    Estimated Free Energy of Binding    =   -2.29 kcal/mol  [=(1)+(2)+(3)-(4)]
USER    Estimated Inhibition Constant, Ki   =   20.86 mM (millimolar)  [Temperature = 298.15 K]
USER    
USER    (1) Final Intermolecular Energy     =   -6.77 kcal/mol
USER        vdW + Hbond + desolv Energy     =   -6.62 kcal/mol
USER        Electrostatic Energy            =   -0.15 kcal/mol
USER    (2) Final Total Internal Energy     =   -4.50 kcal/mol
USER    (3) Torsional Free Energy           =   +4.47 kcal/mol
USER    (4) Unbound System's Energy  [=(2)] =   -4.50 kcal/mol
USER    
USER    
USER  
USER    DPF = dock.dpf
USER    NEWDPF move	lig1tcw.pdbqt
USER    NEWDPF about	57.488000 2.573000 19.823000
USER    NEWDPF tran0	55.748920 3.665044 21.418193
USER    NEWDPF axisangle0	0.725895 -0.620185 -0.297402 -141.454432
USER    NEWDPF quaternion0	0.685214 -0.585428 -0.280735 -0.330066
USER    NEWDPF dihe0	110.28 -143.05 11.33 -99.43 -72.43 126.37 -41.50 87.04 50.82 21.24 -13.65 59.65 -24.37 -85.43 94.47 
USER  
USER                              x       y       z    vdW   Elec        q     RMS 
ATOM      1  C20 IM1 B 600      54.853   2.679  21.665 -0.25 +0.00    +0.084     4.132
ATOM      2  C19 IM1 B 600      56.101   3.266  21.115 -0.17 -0.00    +0.048     4.132
ATOM      3  C17 IM1 B 600      57.397   3.156  21.918 -0.20 -0.02    +0.142     4.132
ATOM      4  C9  IM1 B 600      58.463   2.450  21.086 -0.20 -0.03    +0.119     4.132
ATOM      5  N8  IM1 B 600      58.530   1.067  21.436 -0.07 -0.02    -0.329     4.132
ATOM      6  C6  IM1 B 600      58.618   0.577  22.659 -0.02 +0.16    +0.361     4.132
ATOM      7  O7  IM1 B 600      58.643   1.347  23.620 -0.16 -0.06    -0.238     4.132
ATOM      8  H8  IM1 B 600      58.508   0.395  20.669 -0.03 -0.02    +0.165     4.132
ATOM      9  O5  IM1 B 600      58.663  -0.820  22.842 -0.58 -0.24    -0.294     4.132
ATOM     10  C1  IM1 B 600      57.657  -1.830  22.789 -0.07 +0.02    +0.061     4.132
ATOM     11  C2  IM1 B 600      57.854  -2.776  23.983 -0.04 +0.01    +0.046     4.132
ATOM     12  C3  IM1 B 600      58.026  -2.582  21.503 -0.08 +0.01    +0.046     4.132
ATOM     13  C4  IM1 B 600      56.141  -1.520  22.828 -0.01 +0.00    +0.046     4.132
ATOM     14  C10 IM1 B 600      58.204   2.413  19.610 -0.23 -0.04    +0.066     4.132
ATOM     15  C11 IM1 B 600      58.641   3.724  19.046 -0.29 +0.03    -0.056     4.132
ATOM     16  C12 IM1 B 600      59.725   4.373  19.626 -0.34 -0.00    +0.007     4.132
ATOM     17  C13 IM1 B 600      60.113   5.608  19.115 -0.31 -0.00    +0.001     4.132
ATOM     18  C14 IM1 B 600      59.404   6.176  18.023 -0.38 -0.00    +0.000     4.132
ATOM     19  C15 IM1 B 600      58.319   5.499  17.452 -0.46 -0.00    +0.001     4.132
ATOM     20  C16 IM1 B 600      57.936   4.269  17.963 -0.41 -0.00    +0.007     4.132
ATOM     21  O18 IM1 B 600      58.055   4.384  22.228 -0.12 +0.08    -0.393     4.132
ATOM     22  H18 IM1 B 600      58.729   4.087  22.828 +0.11 -0.02    +0.210     4.132
ATOM     23  C21 IM1 B 600      54.066   1.756  20.694 -0.30 -0.00    +0.052     4.132
ATOM     24  C22 IM1 B 600      54.983   1.179  19.653 -0.19 +0.01    -0.057     4.132
ATOM     25  C23 IM1 B 600      55.805   0.086  19.962 -0.07 -0.00    +0.007     4.132
ATOM     26  C24 IM1 B 600      56.616  -0.462  18.967 -0.08 -0.00    +0.001     4.132
ATOM     27  C25 IM1 B 600      56.606   0.086  17.675 -0.15 -0.00    +0.000     4.132
ATOM     28  C26 IM1 B 600      55.772   1.189  17.386 -0.24 -0.00    +0.001     4.132
ATOM     29  C27 IM1 B 600      54.960   1.735  18.377 -0.25 -0.00    +0.007     4.132
ATOM     30  C28 IM1 B 600      55.064   1.830  22.883 -0.14 -0.00    +0.222     4.132
ATOM     31  O29 IM1 B 600      56.108   1.574  23.478 -0.07 -0.00    -0.273     4.132
ATOM     32  N30 IM1 B 600      53.916   1.376  23.237 -0.07 +0.01    -0.349     4.132
ATOM     33  H30 IM1 B 600      53.064   1.603  22.723 +0.05 -0.00    +0.163     4.132
ATOM     34  C31 IM1 B 600      53.901   0.547  24.373 -0.09 -0.00    +0.155     4.132
ATOM     35  C32 IM1 B 600      53.572   1.549  25.503 -0.18 -0.00    +0.007     4.132
ATOM     36  C33 IM1 B 600      53.789   2.982  25.208 -0.30 -0.00    +0.012     4.132
ATOM     37  C34 IM1 B 600      52.099   1.261  25.783 -0.08 -0.00    +0.012     4.132
ATOM     38  C35 IM1 B 600      52.930  -0.510  23.963 -0.06 -0.00    +0.104     4.132
ATOM     39  N36 IM1 B 600      51.769  -0.432  23.419 -0.05 +0.01    -0.353     4.132
ATOM     40  C37 IM1 B 600      51.281  -1.695  23.600 -0.04 -0.00    +0.106     4.132
ATOM     41  H36 IM1 B 600      51.325   0.367  22.967 +0.03 -0.00    +0.166     4.132
ATOM     42  C38 IM1 B 600      52.224  -2.463  24.253 -0.01 -0.00    +0.106     4.132
ATOM     43  N39 IM1 B 600      53.294  -1.651  24.473 -0.00 +0.00    -0.353     4.132
ATOM     44  H39 IM1 B 600      54.176  -1.883  24.930 +0.01 +0.00    +0.166     4.132
TER
ENDMDL


AVSFLD: # AVS field file
AVSFLD: #
AVSFLD: # Created by AutoDock
AVSFLD: #
AVSFLD: ndim=2           # number of dimensions in the field
AVSFLD: nspace=1         # number of physical coordinates
AVSFLD: veclen=7         # vector size
AVSFLD: dim1=44          # atoms
AVSFLD: dim2=10          # conformations
AVSFLD: data=Real       # data type (byte,integer,Real,double)
AVSFLD: field=uniform    # field coordinate layout
AVSFLD: label= x y z vdW Elec q RMS
AVSFLD: variable 1 file = dock.dlg.pdb filetype = ascii offset = 5 stride = 12
AVSFLD: variable 2 file = dock.dlg.pdb filetype = ascii offset = 6 stride = 12
AVSFLD: variable 3 file = dock.dlg.pdb filetype = ascii offset = 7 stride = 12
AVSFLD: variable 4 file = dock.dlg.pdb filetype = ascii offset = 8 stride = 12
AVSFLD: variable 5 file = dock.dlg.pdb filetype = ascii offset = 9 stride = 12
AVSFLD: variable 6 file = dock.dlg.pdb filetype = ascii offset = 10 stride = 12
AVSFLD: variable 7 file = dock.dlg.pdb filetype = ascii offset = 11 stride = 12
AVSFLD: # end of file

>>> Closing the docking parameter file (DPF)...
This docking finished at:			11:08 27" p.m., 11/24/2025


________________________________________________________________________________

.\autodock4.exe: Successful Completion on "LAPTOP-PFTQOH6G"

Real= 31m 55.28s,  CPU= 2m 02.38s,  System= 5.03s
________________________________________________________________________________

