REMARK  14 active torsions:
REMARK  status: ('A' for Active; 'I' for Inactive)
REMARK    1  A    between atoms: N1_2  and  C31_45 
REMARK    2  A    between atoms: C2_4  and  C3_9 
REMARK    3  A    between atoms: N2_5  and  C4_12 
REMARK       I    between atoms: N2_5  and  C3_9 
REMARK    4  A    between atoms: O2_7  and  C11_25 
REMARK    5  A    between atoms: N3_10  and  C10_24 
REMARK    6  A    between atoms: N4_13  and  C22_36 
REMARK       I    between atoms: N4_13  and  C21_35 
REMARK    7  A    between atoms: O4_15  and  C23_37 
REMARK    8  A    between atoms: C10_24  and  C11_25 
REMARK    9  A    between atoms: C11_25  and  C12_26 
REMARK   10  A    between atoms: C12_26  and  C13_27 
REMARK   11  A    between atoms: C13_27  and  C14_28 
REMARK   12  A    between atoms: C13_27  and  C21_35 
REMARK   13  A    between atoms: C14_28  and  C15_29 
REMARK   14  A    between atoms: C31_45  and  C32_46 
ROOT
HETATM    1  C11 MK1 B 902      30.264 -12.889  -1.632  1.00 25.87     0.147 C 
ENDROOT
BRANCH   1   2
HETATM    2  O2  MK1 B 902      31.541 -13.282  -2.152  1.00 26.04    -0.394 OA
ATOM      3  H2  MK1 B 902      31.354 -13.963  -2.788  1.00  0.00     0.210 HD
ENDBRANCH   1   2
BRANCH   1   4
HETATM    4  C10 MK1 B 902      29.408 -14.173  -1.642  1.00 25.91     0.305 C 
BRANCH   4   5
HETATM    5  N3  MK1 B 902      28.741 -14.370  -0.326  1.00 27.05     0.108 N 
HETATM    6  C2  MK1 B 902      29.301 -13.429   0.761  1.00 26.64     0.342 C 
HETATM    7  C1  MK1 B 902      28.507 -13.738   2.035  1.00 29.61     0.318 C 
HETATM    8  N1  MK1 B 902      27.033 -13.536   1.879  1.00 31.00     0.097 N 
HETATM    9  C9  MK1 B 902      26.565 -14.393   0.775  1.00 27.88     0.303 C 
HETATM   10  C8  MK1 B 902      27.286 -14.173  -0.553  1.00 27.31     0.303 C 
BRANCH   6  11
HETATM   11  C3  MK1 B 902      30.783 -13.656   1.042  1.00 28.38     0.253 C 
HETATM   12  O1  MK1 B 902      31.519 -12.672   1.185  1.00 28.37    -0.271 OA
HETATM   13  N2  MK1 B 902      31.196 -14.941   1.113  1.00 27.78    -0.351 N 
ATOM     14  H2  MK1 B 902      30.486 -15.659   0.968  1.00  0.00     0.163 HD
BRANCH  13  15
HETATM   15  C4  MK1 B 902      32.562 -15.406   1.377  1.00 28.96     0.022 C 
HETATM   16  C5  MK1 B 902      32.543 -16.889   1.010  1.00 25.79     0.037 C 
HETATM   17  C6  MK1 B 902      32.884 -15.261   2.859  1.00 26.52     0.037 C 
HETATM   18  C7  MK1 B 902      33.590 -14.700   0.486  1.00 28.69     0.037 C 
ENDBRANCH  13  15
ENDBRANCH   6  11
BRANCH   8  19
HETATM   19  C31 MK1 B 902      26.326 -13.831   3.146  1.00 33.52     0.312 C 
BRANCH  19  20
HETATM   20  C32 MK1 B 902      26.572 -15.149   3.848  1.00 37.83    -0.015 A 
HETATM   21  C33 MK1 B 902      25.494 -15.964   4.250  1.00 38.47     0.096 A 
HETATM   22  N5  MK1 B 902      25.607 -17.207   4.911  1.00 41.93    -0.375 N 
HETATM   23  C34 MK1 B 902      26.956 -17.560   5.131  1.00 41.80     0.087 A 
ATOM     24  H5  MK1 B 902      24.811 -17.779   5.194  1.00  0.00     0.164 HD
HETATM   25  C35 MK1 B 902      28.091 -16.818   4.766  1.00 40.13     0.018 A 
HETATM   26  C36 MK1 B 902      27.895 -15.588   4.110  1.00 38.81     0.011 A 
ENDBRANCH  19  20
ENDBRANCH   8  19
ENDBRANCH   4   5
ENDBRANCH   1   4
BRANCH   1  27
HETATM   27  C12 MK1 B 902      29.716 -11.757  -2.533  1.00 25.95     0.047 C 
BRANCH  27  28
HETATM   28  C13 MK1 B 902      30.454 -10.410  -2.385  1.00 25.07     0.084 C 
BRANCH  28  29
HETATM   29  C14 MK1 B 902      31.391 -10.192  -3.601  1.00 26.77     0.052 C 
BRANCH  29  30
HETATM   30  C15 MK1 B 902      31.433  -8.748  -4.070  1.00 27.20    -0.057 A 
HETATM   31  C16 MK1 B 902      31.003  -8.369  -5.371  1.00 25.34     0.007 A 
HETATM   32  C17 MK1 B 902      31.061  -7.029  -5.796  1.00 27.72     0.001 A 
HETATM   33  C18 MK1 B 902      31.561  -6.054  -4.897  1.00 29.32     0.000 A 
HETATM   34  C19 MK1 B 902      31.990  -6.418  -3.602  1.00 28.64     0.001 A 
HETATM   35  C20 MK1 B 902      31.929  -7.768  -3.181  1.00 27.00     0.007 A 
ENDBRANCH  29  30
ENDBRANCH  28  29
BRANCH  28  36
HETATM   36  C21 MK1 B 902      29.451  -9.248  -2.303  1.00 25.25     0.222 C 
HETATM   37  O3  MK1 B 902      29.325  -8.509  -1.320  1.00 26.56    -0.273 OA
HETATM   38  N4  MK1 B 902      28.697  -9.116  -3.395  1.00 25.27    -0.350 N 
ATOM     39  H4  MK1 B 902      29.031  -9.539  -4.262  1.00  0.00     0.163 HD
BRANCH  38  40
HETATM   40  C22 MK1 B 902      27.454  -8.421  -3.425  1.00 23.88     0.147 C 
HETATM   41  C23 MK1 B 902      27.531  -6.946  -3.776  1.00 23.26     0.149 C 
HETATM   42  C24 MK1 B 902      26.283  -6.347  -3.183  1.00 22.90     0.073 C 
HETATM   43  C25 MK1 B 902      25.988  -7.180  -1.955  1.00 24.80    -0.047 A 
HETATM   44  C26 MK1 B 902      25.204  -6.940  -0.791  1.00 23.86     0.008 A 
HETATM   45  C30 MK1 B 902      26.701  -8.431  -2.108  1.00 24.42    -0.027 A 
HETATM   46  C27 MK1 B 902      25.129  -7.935   0.193  1.00 24.12     0.001 A 
HETATM   47  C28 MK1 B 902      25.808  -9.159   0.072  1.00 25.01     0.001 A 
HETATM   48  C29 MK1 B 902      26.581  -9.390  -1.077  1.00 25.20     0.010 A 
BRANCH  41  49
HETATM   49  O4  MK1 B 902      28.704  -6.341  -3.214  1.00 20.27    -0.393 OA
ATOM     50  H4  MK1 B 902      28.985  -6.800  -2.432  1.00  0.00     0.210 HD
ENDBRANCH  41  49
ENDBRANCH  38  40
ENDBRANCH  28  36
ENDBRANCH  27  28
ENDBRANCH   1  27
TORSDOF 14
