REMARK  17 active torsions:
REMARK  status: ('A' for Active; 'I' for Inactive)
REMARK    1  A    between atoms: N1@A_2  and  C10@A_24 
REMARK    2  A    between atoms: O2@A_7  and  C11@A_25 
REMARK    3  A    between atoms: N3@A_10  and  C12@A_26 
REMARK    4  A    between atoms: O3@A_12  and  C28@A_42 
REMARK    5  A    between atoms: O3@A_12  and  C27@A_41 
REMARK    6  A    between atoms: C4@A_13  and  C29@A_43 
REMARK       I    between atoms: N4@A_14  and  C26@A_40 
REMARK    7  A    between atoms: N4@A_14  and  C25@A_39 
REMARK    8  A    between atoms: O4@A_16  and  C24@A_38 
REMARK    9  A    between atoms: C10@A_24  and  C11@A_25 
REMARK   10  A    between atoms: C10@A_24  and  C13@A_27 
REMARK   11  A    between atoms: C12@A_26  and  C22@A_36 
REMARK   12  A    between atoms: C12@A_26  and  C23@A_37 
REMARK   13  A    between atoms: C20@A_34  and  C22@A_36 
REMARK   14  A    between atoms: C23@A_37  and  C24@A_38 
REMARK   15  A    between atoms: C24@A_38  and  C25@A_39 
REMARK   16  A    between atoms: C25@A_39  and  C29@A_43 
REMARK   17  A    between atoms: C26@A_40  and  C27@A_41 
ROOT
HETATM    1  C23AAB1 A 200      -0.390  23.648  -0.902  0.50 21.80     0.059 C 
ENDROOT
BRANCH   1   2
HETATM    2  C12AAB1 A 200       0.362  24.165  -2.132  0.50 20.00     0.090 C 
BRANCH   2   3
HETATM    3  N3 AAB1 A 200       0.470  23.217  -3.240  0.50 17.93    -0.368 N 
HETATM    4  C11AAB1 A 200      -0.458  22.651  -3.914  0.50 15.73     0.135 C 
ATOM      5  H3 AAB1 A 200       1.421  22.972  -3.514  1.00  0.00     0.161 HD
BRANCH   4   6
HETATM    6  O2 AAB1 A 200      -1.659  22.364  -3.440  0.50 14.11    -0.348 OA
ATOM      7  H2 AAB1 A 200      -1.922  22.482  -2.535  1.00  0.00     0.219 HD
ENDBRANCH   4   6
BRANCH   4   8
HETATM    8  C10AAB1 A 200      -0.169  22.263  -5.363  0.50 15.90     0.166 C 
BRANCH   8   9
HETATM    9  N1 AAB1 A 200      -0.267  23.461  -6.204  0.50 15.40    -0.322 N 
HETATM   10  C3 AAB1 A 200      -0.837  23.347  -7.424  0.50 15.31     0.319 C 
HETATM   11  O1 AAB1 A 200      -1.705  22.494  -7.602  0.50 16.48    -0.247 OA
HETATM   12  N2 AAB1 A 200      -0.845  24.405  -8.251  0.50 14.95    -0.343 N 
HETATM   13  C1 AAB1 A 200       0.207  25.424  -8.247  0.50 15.07     0.126 C 
ATOM     14  H2 AAB1 A 200      -1.618  24.504  -8.909  1.00  0.00     0.164 HD
HETATM   15  C37AAB1 A 200       0.470  25.743  -6.781  0.50 16.52     0.040 C 
HETATM   16  C2 AAB1 A 200       0.805  24.448  -6.039  0.50 15.19     0.130 C 
ENDBRANCH   8   9
BRANCH   8  17
HETATM   17  C13AAB1 A 200       1.188  21.572  -5.503  0.50 16.06     0.008 C 
HETATM   18  C14AAB1 A 200       2.429  22.466  -5.346  0.50 17.15     0.012 C 
HETATM   19  C15AAB1 A 200       1.333  20.354  -4.582  0.50 17.74     0.012 C 
ENDBRANCH   8  17
ENDBRANCH   4   8
ENDBRANCH   2   3
BRANCH   2  20
HETATM   20  C22AAB1 A 200      -0.565  25.256  -2.644  0.50 20.97     0.063 C 
BRANCH  20  21
HETATM   21  C20AAB1 A 200      -0.007  26.562  -2.129  0.50 20.44    -0.056 A 
HETATM   22  C19AAB1 A 200      -0.679  27.441  -1.285  0.50 19.48     0.007 A 
HETATM   23  C18AAB1 A 200      -0.031  28.616  -0.895  0.50 21.05     0.001 A 
HETATM   24  C17AAB1 A 200       1.262  28.939  -1.316  0.50 21.60     0.000 A 
HETATM   25  C16AAB1 A 200       1.923  28.053  -2.148  0.50 20.68     0.001 A 
HETATM   26  C21AAB1 A 200       1.282  26.882  -2.538  0.50 19.26     0.007 A 
ENDBRANCH  20  21
ENDBRANCH   2  20
ENDBRANCH   1   2
BRANCH   1  27
HETATM   27  C24AAB1 A 200      -0.032  22.186  -0.637  0.50 21.13     0.143 C 
BRANCH  27  28
HETATM   28  O4 AAB1 A 200      -0.957  21.381  -1.336  0.50 28.55    -0.393 OA
ATOM     29  H4 AAB1 A 200      -1.809  21.797  -1.276  1.00  0.00     0.210 HD
ENDBRANCH  27  28
BRANCH  27  30
HETATM   30  C25AAB1 A 200       0.071  21.883   0.844  0.50 19.18     0.117 C 
BRANCH  30  31
HETATM   31  N4 AAB1 A 200       0.199  23.063   1.700  0.50 17.68    -0.352 N 
HETATM   32  C26AAB1 A 200       1.279  23.833   1.758  0.50 17.34     0.242 C 
HETATM   33  O5 AAB1 A 200       2.248  23.751   0.997  0.50 16.06    -0.271 OA
ATOM     34  H4 AAB1 A 200      -0.594  23.310   2.292  1.00  0.00     0.163 HD
BRANCH  32  35
HETATM   35  C27AAB1 A 200       1.283  24.891   2.840  0.50 13.58     0.278 C 
BRANCH  35  36
HETATM   36  O3 AAB1 A 200       1.591  24.299   4.160  0.50 14.24    -0.341 OA
BRANCH  36  37
HETATM   37  C28AAB1 A 200       0.647  24.465   5.105  0.50 11.88     0.081 A 
HETATM   38  C30AAB1 A 200       0.472  25.741   5.632  0.50 11.54    -0.028 A 
HETATM   39  C31AAB1 A 200      -0.493  25.909   6.625  0.50 10.80     0.009 A 
HETATM   40  C36AAB1 A 200       1.354  26.845   5.093  0.50 14.48     0.051 C 
HETATM   41  C32AAB1 A 200      -1.270  24.841   7.075  0.50  8.57     0.001 A 
HETATM   42  C33AAB1 A 200      -1.091  23.578   6.547  0.50 10.31     0.009 A 
HETATM   43  C34AAB1 A 200      -0.124  23.390   5.552  0.50 10.06    -0.028 A 
HETATM   44  C35AAB1 A 200       0.084  22.001   4.968  0.50 12.48     0.051 C 
ENDBRANCH  36  37
ENDBRANCH  35  36
ENDBRANCH  32  35
ENDBRANCH  30  31
BRANCH  30  45
HETATM   45  C29AAB1 A 200      -0.928  20.865   1.370  0.50 19.72     0.066 C 
BRANCH  45  46
HETATM   46  C4 AAB1 A 200      -0.298  19.504   1.348  0.50 20.14    -0.056 A 
HETATM   47  C5 AAB1 A 200       0.698  19.216   0.423  0.50 22.01     0.007 A 
HETATM   48  C6 AAB1 A 200       1.296  17.952   0.382  0.50 22.81     0.001 A 
HETATM   49  C7 AAB1 A 200       0.910  16.940   1.254  0.50 20.95     0.000 A 
HETATM   50  C8 AAB1 A 200      -0.085  17.233   2.172  0.50 21.92     0.001 A 
HETATM   51  C9 AAB1 A 200      -0.686  18.492   2.225  0.50 20.71     0.007 A 
ENDBRANCH  45  46
ENDBRANCH  30  45
ENDBRANCH  27  30
ENDBRANCH   1  27
TORSDOF 17
