REMARK  14 active torsions:
REMARK  status: ('A' for Active; 'I' for Inactive)
REMARK    1  A    between atoms: N1_2  and  C31_45 
REMARK    2  A    between atoms: C2_4  and  C3_9 
REMARK    3  A    between atoms: N2_5  and  C4_12 
REMARK       I    between atoms: N2_5  and  C3_9 
REMARK    4  A    between atoms: O2_7  and  C11_25 
REMARK    5  A    between atoms: N3_10  and  C10_24 
REMARK    6  A    between atoms: N4_13  and  C22_36 
REMARK       I    between atoms: N4_13  and  C21_35 
REMARK    7  A    between atoms: O4_15  and  C23_37 
REMARK    8  A    between atoms: C10_24  and  C11_25 
REMARK    9  A    between atoms: C11_25  and  C12_26 
REMARK   10  A    between atoms: C12_26  and  C13_27 
REMARK   11  A    between atoms: C13_27  and  C14_28 
REMARK   12  A    between atoms: C13_27  and  C21_35 
REMARK   13  A    between atoms: C14_28  and  C15_29 
REMARK   14  A    between atoms: C31_45  and  C32_46 
ROOT
HETATM    1  C11 MK1 A 401      11.717   1.042   5.697  1.00 33.80     0.136 C 
ENDROOT
BRANCH   1   2
HETATM    2  O2  MK1 A 401      11.816   1.060   4.269  1.00 33.64    -0.394 OA
ATOM      3  H2  MK1 A 401      11.201   0.440   3.893  1.00  0.00     0.210 HD
ENDBRANCH   1   2
BRANCH   1   4
HETATM    4  C10 MK1 A 401      12.707   2.040   6.302  1.00 30.25     0.149 C 
BRANCH   4   5
HETATM    5  N3  MK1 A 401      12.260   2.538   7.591  1.00 33.02    -0.395 N 
HETATM    6  C2  MK1 A 401      13.308   2.691   8.607  1.00 34.17     0.190 C 
HETATM    7  C1  MK1 A 401      12.733   3.197   9.937  1.00 40.05     0.156 C 
HETATM    8  N1  MK1 A 401      11.834   4.359   9.906  1.00 42.11    -0.385 N 
HETATM    9  C9  MK1 A 401      10.752   4.137   8.910  1.00 38.26     0.141 C 
HETATM   10  C8  MK1 A 401      11.247   3.634   7.541  1.00 31.30     0.137 C 
BRANCH   6  11
HETATM   11  C3  MK1 A 401      14.100   1.424   8.882  1.00 35.76     0.242 C 
HETATM   12  O1  MK1 A 401      13.509   0.383   9.185  1.00 43.08    -0.271 OA
HETATM   13  N2  MK1 A 401      15.430   1.517   8.822  1.00 31.00    -0.351 N 
ATOM     14  H2  MK1 A 401      15.822   2.422   8.561  1.00  0.00     0.163 HD
BRANCH  13  15
HETATM   15  C4  MK1 A 401      16.430   0.373   9.114  1.00 35.86     0.022 C 
HETATM   16  C5  MK1 A 401      17.904   0.864   9.022  1.00 32.95     0.037 C 
HETATM   17  C6  MK1 A 401      16.494  -0.660   7.953  1.00 30.70     0.037 C 
HETATM   18  C7  MK1 A 401      16.120  -0.314  10.549  1.00 30.41     0.037 C 
ENDBRANCH  13  15
ENDBRANCH   6  11
BRANCH   8  19
HETATM   19  C31 MK1 A 401      11.466   4.987  11.206  1.00 43.79     0.098 C 
BRANCH  19  20
HETATM   20  C32 MK1 A 401      12.518   5.370  12.328  1.00 53.99    -0.006 A 
HETATM   21  C33 MK1 A 401      13.604   6.200  12.093  1.00 58.90     0.100 A 
HETATM   22  N5  MK1 A 401      14.519   6.656  13.134  1.00 63.43    -0.374 N 
HETATM   23  C34 MK1 A 401      14.194   6.176  14.418  1.00 58.80     0.087 A 
ATOM     24  H5  MK1 A 401      15.317   7.264  12.950  1.00  0.00     0.164 HD
HETATM   25  C35 MK1 A 401      13.123   5.349  14.679  1.00 57.61     0.018 A 
HETATM   26  C36 MK1 A 401      12.284   4.942  13.637  1.00 57.98     0.015 A 
ENDBRANCH  19  20
ENDBRANCH   8  19
ENDBRANCH   4   5
ENDBRANCH   1   4
BRANCH   1  27
HETATM   27  C12 MK1 A 401      11.896  -0.423   6.091  1.00 34.06     0.047 C 
BRANCH  27  28
HETATM   28  C13 MK1 A 401      11.014  -1.440   5.365  1.00 34.73     0.084 C 
BRANCH  28  29
HETATM   29  C14 MK1 A 401      11.683  -2.769   5.716  1.00 35.91     0.052 C 
BRANCH  29  30
HETATM   30  C15 MK1 A 401      10.833  -3.955   5.408  1.00 39.29    -0.057 A 
HETATM   31  C16 MK1 A 401      10.400  -4.223   4.115  1.00 40.58     0.007 A 
HETATM   32  C17 MK1 A 401       9.447  -5.218   3.899  1.00 42.35     0.001 A 
HETATM   33  C18 MK1 A 401       8.936  -5.943   4.981  1.00 41.31     0.000 A 
HETATM   34  C19 MK1 A 401       9.379  -5.679   6.270  1.00 41.21     0.001 A 
HETATM   35  C20 MK1 A 401      10.326  -4.692   6.483  1.00 41.50     0.007 A 
ENDBRANCH  29  30
ENDBRANCH  28  29
BRANCH  28  36
HETATM   36  C21 MK1 A 401       9.557  -1.385   5.863  1.00 37.06     0.222 C 
HETATM   37  O3  MK1 A 401       9.274  -0.904   6.959  1.00 40.85    -0.273 OA
HETATM   38  N4  MK1 A 401       8.638  -1.901   5.049  1.00 42.35    -0.350 N 
ATOM     39  H4  MK1 A 401       8.938  -2.233   4.132  1.00  0.00     0.163 HD
BRANCH  38  40
HETATM   40  C22 MK1 A 401       7.220  -2.018   5.398  1.00 46.25     0.147 C 
HETATM   41  C23 MK1 A 401       6.439  -2.830   4.337  1.00 44.12     0.149 C 
HETATM   42  C24 MK1 A 401       5.039  -2.275   4.335  1.00 46.59     0.073 C 
HETATM   43  C25 MK1 A 401       5.026  -0.850   4.822  1.00 49.35    -0.047 A 
HETATM   44  C26 MK1 A 401       4.127   0.201   4.720  1.00 52.11     0.008 A 
HETATM   45  C30 MK1 A 401       6.417  -0.704   5.510  1.00 49.60    -0.027 A 
HETATM   46  C27 MK1 A 401       4.501   1.436   5.250  1.00 52.24     0.001 A 
HETATM   47  C28 MK1 A 401       5.740   1.618   5.889  1.00 50.97     0.001 A 
HETATM   48  C29 MK1 A 401       6.674   0.571   6.022  1.00 52.04     0.010 A 
BRANCH  41  49
HETATM   49  O4  MK1 A 401       7.182  -2.947   3.122  1.00 42.09    -0.393 OA
ATOM     50  H4  MK1 A 401       6.703  -3.445   2.471  1.00  0.00     0.210 HD
ENDBRANCH  41  49
ENDBRANCH  38  40
ENDBRANCH  28  36
ENDBRANCH  27  28
ENDBRANCH   1  27
TORSDOF 14
