REMARK  15 active torsions:
REMARK  status: ('A' for Active; 'I' for Inactive)
REMARK    1  A    between atoms: C1_1  and  O5_5 
REMARK    2  A    between atoms: O5_5  and  C6_6 
REMARK       I    between atoms: C6_6  and  N8_8 
REMARK    3  A    between atoms: N8_8  and  C9_10 
REMARK    4  A    between atoms: C9_10  and  C10_11 
REMARK    5  A    between atoms: C9_10  and  C17_18 
REMARK    6  A    between atoms: C10_11  and  C11_12 
REMARK    7  A    between atoms: C17_18  and  O18_19 
REMARK    8  A    between atoms: C17_18  and  C19_21 
REMARK    9  A    between atoms: C19_21  and  C20_22 
REMARK   10  A    between atoms: C20_22  and  C21_23 
REMARK   11  A    between atoms: C20_22  and  C28_30 
REMARK   12  A    between atoms: C21_23  and  C22_24 
REMARK       I    between atoms: C28_30  and  N30_32 
REMARK   13  A    between atoms: N30_32  and  C31_34 
REMARK   14  A    between atoms: C31_34  and  C32_35 
REMARK   15  A    between atoms: C31_34  and  C35_38 
ROOT
HETATM    1  C20 IM1 B 600      58.322   3.414  20.482  1.00 14.60     0.084 C 
ENDROOT
BRANCH   1   2
HETATM    2  C19 IM1 B 600      57.937   2.157  19.790  1.00  8.92     0.048 C 
BRANCH   2   3
HETATM    3  C17 IM1 B 600      56.524   2.017  19.224  1.00 12.93     0.142 C 
BRANCH   3   4
HETATM    4  C9  IM1 B 600      56.119   0.547  19.203  1.00 15.38     0.119 C 
BRANCH   4   5
HETATM    5  N8  IM1 B 600      56.810  -0.143  18.160  1.00 26.76    -0.329 N 
HETATM    6  C6  IM1 B 600      56.601  -0.005  16.864  1.00 29.91     0.361 C 
HETATM    7  O7  IM1 B 600      55.743   0.785  16.469  1.00 31.37    -0.238 OA
ATOM      8  H8  IM1 B 600      57.533  -0.804  18.444  1.00  0.00     0.165 HD
BRANCH   6   9
HETATM    9  O5  IM1 B 600      57.379  -0.751  15.956  1.00 36.53    -0.294 OA
BRANCH   9  10
HETATM   10  C1  IM1 B 600      58.112  -1.967  16.089  1.00 39.66     0.061 C 
HETATM   11  C2  IM1 B 600      59.345  -1.895  15.175  1.00 40.54     0.046 C 
HETATM   12  C3  IM1 B 600      57.133  -2.997  15.509  1.00 42.17     0.046 C 
HETATM   13  C4  IM1 B 600      58.697  -2.462  17.434  1.00 36.19     0.046 C 
ENDBRANCH   9  10
ENDBRANCH   6   9
ENDBRANCH   4   5
BRANCH   4  14
HETATM   14  C10 IM1 B 600      56.484  -0.237  20.427  1.00 12.98     0.066 C 
BRANCH  14  15
HETATM   15  C11 IM1 B 600      55.226  -0.828  20.971  1.00 18.40    -0.056 A 
HETATM   16  C12 IM1 B 600      54.996  -2.188  20.795  1.00 18.76     0.007 A 
HETATM   17  C13 IM1 B 600      53.810  -2.731  21.280  1.00 27.80     0.001 A 
HETATM   18  C14 IM1 B 600      52.868  -1.896  21.939  1.00 29.10     0.000 A 
HETATM   19  C15 IM1 B 600      53.126  -0.530  22.110  1.00 23.02     0.001 A 
HETATM   20  C16 IM1 B 600      54.309   0.007  21.626  1.00 18.59     0.007 A 
ENDBRANCH  14  15
ENDBRANCH   4  14
ENDBRANCH   3   4
BRANCH   3  21
HETATM   21  O18 IM1 B 600      55.472   2.584  20.004  1.00 13.95    -0.393 OA
ATOM     22  H18 IM1 B 600      55.724   3.500  20.017  1.00  0.00     0.210 HD
ENDBRANCH   3  21
ENDBRANCH   2   3
ENDBRANCH   1   2
BRANCH   1  23
HETATM   23  C21 IM1 B 600      59.108   3.230  21.809  1.00 19.27     0.052 C 
BRANCH  23  24
HETATM   24  C22 IM1 B 600      58.272   2.502  22.823  1.00 22.95    -0.057 A 
HETATM   25  C23 IM1 B 600      56.943   2.886  23.051  1.00 24.72     0.007 A 
HETATM   26  C24 IM1 B 600      56.171   2.168  23.966  1.00 29.77     0.001 A 
HETATM   27  C25 IM1 B 600      56.730   1.077  24.649  1.00 32.69     0.000 A 
HETATM   28  C26 IM1 B 600      58.072   0.709  24.406  1.00 30.22     0.001 A 
HETATM   29  C27 IM1 B 600      58.843   1.423  23.492  1.00 23.45     0.007 A 
ENDBRANCH  23  24
ENDBRANCH   1  23
BRANCH   1  30
HETATM   30  C28 IM1 B 600      59.195   4.317  19.663  1.00 12.35     0.222 C 
HETATM   31  O29 IM1 B 600      60.297   4.092  19.170  1.00  8.82    -0.273 OA
HETATM   32  N30 IM1 B 600      58.582   5.440  19.547  1.00 12.71    -0.349 N 
ATOM     33  H30 IM1 B 600      57.667   5.601  19.969  1.00  0.00     0.163 HD
BRANCH  32  34
HETATM   34  C31 IM1 B 600      59.245   6.434  18.805  1.00 17.41     0.155 C 
BRANCH  34  35
HETATM   35  C32 IM1 B 600      58.403   6.489  17.510  1.00 15.27     0.007 C 
HETATM   36  C33 IM1 B 600      57.855   7.808  17.126  1.00 19.84     0.012 C 
HETATM   37  C34 IM1 B 600      59.378   5.969  16.457  1.00 14.27     0.012 C 
ENDBRANCH  34  35
BRANCH  34  38
HETATM   38  C35 IM1 B 600      59.261   7.571  19.771  1.00 15.39     0.104 A 
HETATM   39  N36 IM1 B 600      58.494   8.595  19.892  1.00 18.67    -0.353 N 
HETATM   40  C37 IM1 B 600      59.215   9.398  20.729  1.00 20.60     0.106 A 
ATOM     41  H36 IM1 B 600      57.581   8.765  19.471  1.00  0.00     0.166 HD
HETATM   42  C38 IM1 B 600      60.396   8.768  21.066  1.00 20.53     0.106 A 
HETATM   43  N39 IM1 B 600      60.390   7.570  20.420  1.00 18.40    -0.353 N 
ATOM     44  H39 IM1 B 600      61.103   6.841  20.440  1.00  0.00     0.166 HD
ENDBRANCH  34  38
ENDBRANCH  32  34
ENDBRANCH   1  30
TORSDOF 15
