          AutoDock 4.2 Release 4.2.6   
         (C) 1989-2012 The Scripps Research Institute
        AutoDock comes with ABSOLUTELY NO WARRANTY.
        AutoDock is free software, and you are welcome
        to redistribute it under certain conditions;
        for details type 'autodock4 -C'

                     main.cc  $Revision: 1.213 $

                   Compiled on Jul 18 2014 at 15:34:58


This file was created at:			10:03 14" p.m., 11/24/2025
                   on host:		"LAPTOP-PFTQOH6G"
Current Working Directory = "C:\Program Files (x86)\Docking\November 25\2411 Docking\1FMB"

      ________________________________________________________________

                   SETTING UP DEFAULT PARAMETER LIBRARY
      ________________________________________________________________


Random number generator was seeded with values 6808, 1764010994.
Docking parameter file (DPF) used for this docking:		dock.dpf
DPF> autodock_parameter_version 4.2       # used by autodock to validate parameter set

	Autodock parameter version 4.2.
DPF> outlev 1                             # diagnostic output level

Output Level = 1  ADT-COMPATIBLE OUTPUT DURING DOCKING.
DPF> intelec                              # calculate internal electrostatics

Electrostatic energies will be calculated for all non-bonds between moving atoms.
DPF> seed pid time                        # seeds for random generator

Random number generator was seeded with values 6808, 1764010994.
DPF> ligand_types A C OA N S HD           # atoms types in ligand

DPF> fld 1fmb.maps.fld                    # grid_data_file

Opening Grid Map Dimensions file:		1fmb.maps.fld
Grid Point Spacing =				0.375 Angstroms

Even Number of User-specified Grid Points =	40 x-points
						28 y-points
						36 z-points

Coordinates of Central Grid Point of Maps =	(5.196, 20.065, 3.725)
Macromolecule file used to create Grid Maps =	1fmb.pdbqt
Grid Parameter file used to create Grid Maps =	grid.gpf
Minimum coordinates in grid = (-2.304, 14.815, -3.025)
Maximum coordinates in grid = (12.696, 25.315, 10.475)

DPF> map 1fmb.A.map                       # atom-specific affinity map

DPF> map 1fmb.C.map                       # atom-specific affinity map

DPF> map 1fmb.OA.map                      # atom-specific affinity map

DPF> map 1fmb.N.map                       # atom-specific affinity map

DPF> map 1fmb.S.map                       # atom-specific affinity map

DPF> map 1fmb.HD.map                      # atom-specific affinity map

DPF> elecmap 1fmb.e.map                   # electrostatics map

DPF> desolvmap 1fmb.d.map                 # desolvation map

DPF> move lig1fmb.pdbqt                   # small molecule

1,4-interactions will be _ignored_ in the non-bonded internal energy calculation.

Ligand PDBQT file = "lig1fmb.pdbqt"

INPUT LIGAND PDBQT FILE:
________________________

INPUT-LIGAND-PDBQT: REMARK  14 active torsions:
INPUT-LIGAND-PDBQT: REMARK  status: ('A' for Active; 'I' for Inactive)
INPUT-LIGAND-PDBQT: REMARK    1  A    between atoms: S1@A_1  and  C36@A_39 
INPUT-LIGAND-PDBQT: REMARK    2  A    between atoms: S1@A_1  and  C38@A_41 
INPUT-LIGAND-PDBQT: REMARK    3  A    between atoms: C7@A_7  and  C35@A_38 
INPUT-LIGAND-PDBQT: REMARK    4  A    between atoms: O14@A_14  and  C15@A_16 
INPUT-LIGAND-PDBQT: REMARK    5  A    between atoms: C15@A_16  and  C17@A_19 
INPUT-LIGAND-PDBQT: REMARK    6  A    between atoms: N16@A_17  and  C17@A_19 
INPUT-LIGAND-PDBQT: REMARK       I    between atoms: N16@A_17  and  C27@A_30 
INPUT-LIGAND-PDBQT: REMARK    7  A    between atoms: C17@A_19  and  C18@A_20 
INPUT-LIGAND-PDBQT: REMARK    8  A    between atoms: C18@A_20  and  C19@A_21 
INPUT-LIGAND-PDBQT: REMARK    9  A    between atoms: N25@A_27  and  C26@A_29 
INPUT-LIGAND-PDBQT: REMARK       I    between atoms: N25@A_27  and  C32@A_35 
INPUT-LIGAND-PDBQT: REMARK   10  A    between atoms: C26@A_29  and  C27@A_30 
INPUT-LIGAND-PDBQT: REMARK   11  A    between atoms: C26@A_29  and  C29@A_32 
INPUT-LIGAND-PDBQT: REMARK   12  A    between atoms: C32@A_35  and  C34@A_37 
INPUT-LIGAND-PDBQT: REMARK   13  A    between atoms: C34@A_37  and  C35@A_38 
INPUT-LIGAND-PDBQT: REMARK   14  A    between atoms: C34@A_37  and  C36@A_39 
INPUT-LIGAND-PDBQT: ROOT
INPUT-LIGAND-PDBQT: HETATM    1  N25AHYB A 201       3.696  19.957   3.611  0.50  9.11    -0.347 N 
INPUT-LIGAND-PDBQT: ATOM      2  H25AHYB A 201       3.843  20.901   3.253  1.00  0.00     0.163 HD
INPUT-LIGAND-PDBQT: HETATM    3  C32AHYB A 201       4.773  19.287   4.106  0.50  9.72     0.223 C 
INPUT-LIGAND-PDBQT: HETATM    4  O33AHYB A 201       4.710  18.128   4.534  0.50 12.45    -0.273 OA
INPUT-LIGAND-PDBQT: ENDROOT
INPUT-LIGAND-PDBQT: BRANCH   3   5
INPUT-LIGAND-PDBQT: HETATM    5  C34AHYB A 201       6.118  20.038   4.013  0.50 12.18     0.096 C 
INPUT-LIGAND-PDBQT: BRANCH   5   6
INPUT-LIGAND-PDBQT: HETATM    6  C35AHYB A 201       6.841  19.425   2.786  0.50 12.81     0.054 C 
INPUT-LIGAND-PDBQT: BRANCH   6   7
INPUT-LIGAND-PDBQT: HETATM    7  C7 AHYB A 201       7.825  20.449   2.193  0.50 16.97    -0.046 A 
INPUT-LIGAND-PDBQT: HETATM    8  C6 AHYB A 201       7.793  21.777   2.433  0.50 20.42     0.008 A 
INPUT-LIGAND-PDBQT: HETATM    9  C5 AHYB A 201       8.756  22.657   1.797  0.50 22.47     0.001 A 
INPUT-LIGAND-PDBQT: HETATM   10  C4 AHYB A 201       9.695  22.148   0.952  0.50 22.25     0.012 A 
INPUT-LIGAND-PDBQT: HETATM   11  C9 AHYB A 201       9.753  20.740   0.673  0.50 22.66    -0.025 A 
INPUT-LIGAND-PDBQT: HETATM   12  C8 AHYB A 201       8.837  19.857   1.259  0.50 19.85    -0.020 A 
INPUT-LIGAND-PDBQT: HETATM   13  C10AHYB A 201      10.763  20.235  -0.215  0.50 19.04     0.012 A 
INPUT-LIGAND-PDBQT: HETATM   14  C13AHYB A 201       8.900  18.489   0.968  0.50 17.94     0.013 A 
INPUT-LIGAND-PDBQT: HETATM   15  C12AHYB A 201       9.875  17.999   0.095  0.50 23.42     0.001 A 
INPUT-LIGAND-PDBQT: HETATM   16  C11AHYB A 201      10.811  18.894  -0.493  0.50 18.84     0.001 A 
INPUT-LIGAND-PDBQT: ENDBRANCH   6   7
INPUT-LIGAND-PDBQT: ENDBRANCH   5   6
INPUT-LIGAND-PDBQT: BRANCH   5  17
INPUT-LIGAND-PDBQT: HETATM   17  C36AHYB A 201       6.977  19.900   5.311  0.50 11.71     0.155 C 
INPUT-LIGAND-PDBQT: BRANCH  17  18
INPUT-LIGAND-PDBQT: HETATM   18  S1 AHYB A 201       6.488  21.119   6.520  0.50 15.61     0.152 S 
INPUT-LIGAND-PDBQT: HETATM   19  O2 AHYB A 201       6.964  22.374   6.008  0.50 19.88    -0.227 OA
INPUT-LIGAND-PDBQT: HETATM   20  O3 AHYB A 201       5.111  21.007   6.876  0.50 19.03    -0.227 OA
INPUT-LIGAND-PDBQT: BRANCH  18  21
INPUT-LIGAND-PDBQT: HETATM   21  C38AHYB A 201       7.442  20.717   8.043  0.50 17.42     0.053 C 
INPUT-LIGAND-PDBQT: HETATM   22  C37AHYB A 201       6.931  19.408   8.697  0.50 20.06     0.031 C 
INPUT-LIGAND-PDBQT: HETATM   23  C39AHYB A 201       7.132  21.866   9.033  0.50 16.30     0.031 C 
INPUT-LIGAND-PDBQT: HETATM   24  C40AHYB A 201       8.956  20.660   7.723  0.50 19.07     0.031 C 
INPUT-LIGAND-PDBQT: ENDBRANCH  18  21
INPUT-LIGAND-PDBQT: ENDBRANCH  17  18
INPUT-LIGAND-PDBQT: ENDBRANCH   5  17
INPUT-LIGAND-PDBQT: ENDBRANCH   3   5
INPUT-LIGAND-PDBQT: BRANCH   1  25
INPUT-LIGAND-PDBQT: HETATM   25  C26AHYB A 201       2.319  19.400   3.559  0.50  4.80     0.180 C 
INPUT-LIGAND-PDBQT: BRANCH  25  26
INPUT-LIGAND-PDBQT: HETATM   26  C27AHYB A 201       1.830  19.787   2.111  0.50  7.43     0.241 C 
INPUT-LIGAND-PDBQT: HETATM   27  N16AHYB A 201       2.244  18.878   1.154  0.50  8.13    -0.352 N 
INPUT-LIGAND-PDBQT: ATOM     28  H16AHYB A 201       2.795  18.074   1.454  1.00  0.00     0.163 HD
INPUT-LIGAND-PDBQT: HETATM   29  O28AHYB A 201       1.110  20.734   1.838  0.50  8.24    -0.271 OA
INPUT-LIGAND-PDBQT: BRANCH  27  30
INPUT-LIGAND-PDBQT: HETATM   30  C17AHYB A 201       1.927  19.016  -0.278  0.50  9.99     0.112 C 
INPUT-LIGAND-PDBQT: BRANCH  30  31
INPUT-LIGAND-PDBQT: HETATM   31  C15AHYB A 201       1.191  17.714  -0.701  0.50  8.24     0.189 C 
INPUT-LIGAND-PDBQT: BRANCH  31  32
INPUT-LIGAND-PDBQT: HETATM   32  O14AHYB A 201       2.159  16.632  -0.443  0.50 12.26    -0.399 OA
INPUT-LIGAND-PDBQT: ATOM     33  H14AHYB A 201       1.709  15.836  -0.702  1.00  0.00     0.209 HD
INPUT-LIGAND-PDBQT: ENDBRANCH  31  32
INPUT-LIGAND-PDBQT: ENDBRANCH  30  31
INPUT-LIGAND-PDBQT: BRANCH  30  34
INPUT-LIGAND-PDBQT: HETATM   34  C18AHYB A 201       3.260  19.198  -1.043  0.50  6.21     0.065 C 
INPUT-LIGAND-PDBQT: BRANCH  34  35
INPUT-LIGAND-PDBQT: HETATM   35  C19AHYB A 201       3.985  20.527  -0.994  0.50  6.94    -0.056 A 
INPUT-LIGAND-PDBQT: HETATM   36  C20AHYB A 201       5.032  20.801  -0.107  0.50 16.39     0.007 A 
INPUT-LIGAND-PDBQT: HETATM   37  C21AHYB A 201       5.734  22.013  -0.110  0.50 20.94     0.001 A 
INPUT-LIGAND-PDBQT: HETATM   38  C22AHYB A 201       5.369  22.999  -1.034  0.50 21.72     0.000 A 
INPUT-LIGAND-PDBQT: HETATM   39  C23AHYB A 201       4.347  22.743  -1.945  0.50 17.14     0.001 A 
INPUT-LIGAND-PDBQT: HETATM   40  C24AHYB A 201       3.659  21.526  -1.927  0.50 16.26     0.007 A 
INPUT-LIGAND-PDBQT: ENDBRANCH  34  35
INPUT-LIGAND-PDBQT: ENDBRANCH  30  34
INPUT-LIGAND-PDBQT: ENDBRANCH  27  30
INPUT-LIGAND-PDBQT: ENDBRANCH  25  26
INPUT-LIGAND-PDBQT: BRANCH  25  41
INPUT-LIGAND-PDBQT: HETATM   41  C29AHYB A 201       1.381  19.922   4.675  0.50  7.39     0.009 C 
INPUT-LIGAND-PDBQT: HETATM   42  C30AHYB A 201      -0.090  19.597   4.367  0.50  6.71     0.012 C 
INPUT-LIGAND-PDBQT: HETATM   43  C31AHYB A 201       1.870  19.288   5.998  0.50  7.05     0.012 C 
INPUT-LIGAND-PDBQT: ENDBRANCH  25  41
INPUT-LIGAND-PDBQT: ENDBRANCH   1  25
INPUT-LIGAND-PDBQT: TORSDOF 14
________________________________________________________________________________

Total charge on ligand                               =	+0.002 e
REMARK  14 active torsions:
REMARK  status: ('A' for Active; 'I' for Inactive)
REMARK    1  A    between atoms: S1@A_1  and  C36@A_39 
REMARK    2  A    between atoms: S1@A_1  and  C38@A_41 
REMARK    3  A    between atoms: C7@A_7  and  C35@A_38 
REMARK    4  A    between atoms: O14@A_14  and  C15@A_16 
REMARK    5  A    between atoms: C15@A_16  and  C17@A_19 
REMARK    6  A    between atoms: N16@A_17  and  C17@A_19 
REMARK       I    between atoms: N16@A_17  and  C27@A_30 
REMARK    7  A    between atoms: C17@A_19  and  C18@A_20 
REMARK    8  A    between atoms: C18@A_20  and  C19@A_21 
REMARK    9  A    between atoms: N25@A_27  and  C26@A_29 
REMARK       I    between atoms: N25@A_27  and  C32@A_35 
REMARK   10  A    between atoms: C26@A_29  and  C27@A_30 
REMARK   11  A    between atoms: C26@A_29  and  C29@A_32 
REMARK   12  A    between atoms: C32@A_35  and  C34@A_37 
REMARK   13  A    between atoms: C34@A_37  and  C35@A_38 
REMARK   14  A    between atoms: C34@A_37  and  C36@A_39 


Number of Rotatable Bonds in Small Molecule =	14 torsions
Number of atoms in ligand:  43

Number of non-hydrogen atoms in ligand:  40

Number of vibrational degrees of freedom of ligand:  123


Number of torsional degrees of freedom = 14
Estimated loss of torsional free energy upon binding = +4.1762 kcal/mol


DPF> about 5.368 20.063 2.466            # small molecule center

Small molecule center of rotation =	(+5.368, +20.063, +2.466)

DPF> tran0 random                         # initial coordinates/A or random

Initial translation =			(4.102, 21.556, 3.760) Angstroms
DPF> quaternion0 random                   # initial orientation

Each run will begin with a new, random initial orientation.
Initial quaternion,  (x,y,z,w) =	( 0.300, -0.347, -0.467, -0.756 ),
DPF> dihe0 random                         # initial dihedrals (relative) or random

DPF> torsdof 14                            # torsional degrees of freedom

Number of torsional degrees of freedom = 14
Free energy coefficient for torsional degrees of freedom = 0.2983, the factory default value.

Estimated loss of torsional free energy upon binding = +4.1762 kcal/mol

DPF> rmstol 2.0                           # cluster_tolerance/A

Maximum RMS tolerance for conformational cluster analysis = 2.00 Angstroms
DPF> extnrg 1000.0                        # external grid energy

External grid energy (beyond grid map walls) = 1000.00

DPF> e0max 0.0 10000                      # max initial energy; max number of retries

Using user-specified maximum number of retries for simanneal initialization, 10000 retries.
If the simanneal initial energy is greater than e0max, 0.000,
then a new, random initial state will be created.

DPF> ga_pop_size 150                      # number of individuals in population

A population of 150 individuals will be used
DPF> ga_num_evals 2500000                 # maximum number of energy evaluations

There will be at most 2500000 function evaluations used.
DPF> ga_num_generations 27000             # maximum number of generations

The GA will run for at most 27000 generations.
DPF> ga_elitism 1                         # number of top individuals to survive to next generation

The 1 best will be preserved each GA generation.
DPF> ga_mutation_rate 0.02                # rate of gene mutation

The mutation rate is 0.020000.
DPF> ga_crossover_rate 0.8                # rate of crossover

The crossover rate is 0.800000.
DPF> ga_window_size 10                    # 

The GA's selection window is 10 generations.
DPF> ga_cauchy_alpha 0.0                  # Alpha parameter of Cauchy distribution

The alpha parameter (for the Cauchy distribution) is being set to 0.000000.
DPF> ga_cauchy_beta 1.0                   # Beta parameter Cauchy distribution

The beta parameter (for the Cauchy distribution) is being set to 1.000000.
DPF> set_ga                               # set the above parameters for GA or LGA

DPF> sw_max_its 300                       # iterations of Solis & Wets local search

Solis & Wets algorithms will perform at most 300 iterations.
DPF> sw_max_succ 4                        # consecutive successes before changing rho

Solis & Wets algorithms expand rho every 4 in a row successes.
DPF> sw_max_fail 4                        # consecutive failures before changing rho

Solis & Wets algorithms contract rho every 4 in a row failures.
DPF> sw_rho 1.0                           # size of local search space to sample

rho is set to 1.000000.
DPF> sw_lb_rho 0.01                       # lower bound on rho

rho will never get smaller than 0.010000.
DPF> ls_search_freq 0.06                  # probability of performing local search on individual

Local search will be performed with frequency 0.060000.
DPF> set_psw1                             # set the above pseudo-Solis & Wets parameters

Creating a new Local Search object using the pseudo-Solis-Wets algorithm (pSW1) with the current settings.

DPF> unbound_model bound                  # state of unbound ligand

DPF> ga_run 10                            # do this many hybrid GA-LS runs

centering ligand on specified point: 5.368 20.063 2.466
Furthest true ligand atom from "about" center is 7.035 Angstroms (maxrad).
Number of requested GA dockings = 10 runs
Unbound model to be used is 'same as bound' [AutoDock 4.2 default].

	BEGINNING GENETIC ALGORITHM DOCKING 1 of 10
Run: 1 Seed: 1225910823 719329206 [ Run 1 of 10 GA/GALS ]
Beginning LAMARCKIAN GENETIC ALGORITHM (LGA), with a maximum of 2500000 energy evaluations.

Final-Value: -17.034


	FINAL GENETIC ALGORITHM DOCKED STATE
	_______________________________________________


Detailed state:  trans 3.178 18.241 2.343 quatxyzw -0.143806 0.769599 0.580460 0.223838 center 5.368 20.063 2.466 ntor 14 -111.7275 15.2839 -50.7753 -47.5340 20.5900 -81.6144 -1.9885 165.3611 34.4148 -84.3041 -35.2633 -132.7879 -23.6289 -176.2567
State:	  3.178  18.241   2.343  -0.148  0.790  0.596 154.131   -111.73   15.28  -50.78  -47.53   20.59  -81.61   -1.99  165.36   34.41  -84.30  -35.26 -132.79  -23.63 -176.26

DOCKED: MODEL        1
DOCKED: USER    Run = 1
DOCKED: USER    DPF = dock.dpf
DOCKED: USER  
DOCKED: USER    Estimated Free Energy of Binding    =   -6.38 kcal/mol  [=(1)+(2)+(3)-(4)]
DOCKED: USER    Estimated Inhibition Constant, Ki   =   21.12 uM (micromolar)  [Temperature = 298.15 K]
DOCKED: USER    
DOCKED: USER    (1) Final Intermolecular Energy     =  -10.55 kcal/mol
DOCKED: USER        vdW + Hbond + desolv Energy     =  -10.34 kcal/mol
DOCKED: USER        Electrostatic Energy            =   -0.21 kcal/mol
DOCKED: USER    (2) Final Total Internal Energy     =   -6.48 kcal/mol
DOCKED: USER    (3) Torsional Free Energy           =   +4.18 kcal/mol
DOCKED: USER    (4) Unbound System's Energy  [=(2)] =   -6.48 kcal/mol
DOCKED: USER    
DOCKED: USER    
DOCKED: USER    NEWDPF move lig1fmb.pdbqt
DOCKED: USER    NEWDPF about 5.368000 20.063000 2.466000
DOCKED: USER    NEWDPF tran0 3.178426 18.240566 2.342814
DOCKED: USER    NEWDPF quaternion0 -0.143806 0.769599 0.580460 0.223838
DOCKED: USER    NEWDPF axisangle0 -0.147550 0.789635 0.595572 154.130933
DOCKED: USER    NEWDPF quat0 -0.147550 0.789635 0.595572 154.130933
DOCKED: USER    NEWDPF dihe0 -111.73 15.28 -50.78 -47.53 20.59 -81.61 -1.99 165.36 34.41 -84.30 -35.26 -132.79 -23.63 -176.26 
DOCKED: USER  keepresnum = 1 
DOCKED: USER  
DOCKED: REMARK  14 active torsions:
DOCKED: REMARK  status: ('A' for Active; 'I' for Inactive)
DOCKED: REMARK    1  A    between atoms: S1@A_1  and  C36@A_39 
DOCKED: REMARK    2  A    between atoms: S1@A_1  and  C38@A_41 
DOCKED: REMARK    3  A    between atoms: C7@A_7  and  C35@A_38 
DOCKED: REMARK    4  A    between atoms: O14@A_14  and  C15@A_16 
DOCKED: REMARK    5  A    between atoms: C15@A_16  and  C17@A_19 
DOCKED: REMARK    6  A    between atoms: N16@A_17  and  C17@A_19 
DOCKED: REMARK       I    between atoms: N16@A_17  and  C27@A_30 
DOCKED: REMARK    7  A    between atoms: C17@A_19  and  C18@A_20 
DOCKED: REMARK    8  A    between atoms: C18@A_20  and  C19@A_21 
DOCKED: REMARK    9  A    between atoms: N25@A_27  and  C26@A_29 
DOCKED: REMARK       I    between atoms: N25@A_27  and  C32@A_35 
DOCKED: REMARK   10  A    between atoms: C26@A_29  and  C27@A_30 
DOCKED: REMARK   11  A    between atoms: C26@A_29  and  C29@A_32 
DOCKED: REMARK   12  A    between atoms: C32@A_35  and  C34@A_37 
DOCKED: REMARK   13  A    between atoms: C34@A_37  and  C35@A_38 
DOCKED: REMARK   14  A    between atoms: C34@A_37  and  C36@A_39 
DOCKED: USER                              x       y       z     vdW  Elec       q    Type
DOCKED: USER                           _______ _______ _______ _____ _____    ______ ____
DOCKED: ROOT
DOCKED: ATOM      1  N25AHYB A 201       4.024  19.964   1.686 -0.07 +0.08    -0.347 N 
DOCKED: ATOM      2  H25AHYB A 201       4.117  19.866   2.697 +0.02 -0.05    +0.163 HD
DOCKED: ATOM      3  C32AHYB A 201       2.820  19.666   1.123 -0.14 -0.04    +0.223 C 
DOCKED: ATOM      4  O33AHYB A 201       2.611  19.721  -0.095 -0.10 +0.02    -0.273 OA
DOCKED: ENDROOT
DOCKED: BRANCH   3   5
DOCKED: ATOM      5  C34AHYB A 201       1.742  19.155   2.103 -0.22 -0.03    +0.096 C 
DOCKED: BRANCH   5   6
DOCKED: ATOM      6  C35AHYB A 201       1.125  20.432   2.728 -0.23 -0.01    +0.054 C 
DOCKED: BRANCH   6   7
DOCKED: ATOM      7  C7 AHYB A 201       0.305  21.190   1.669 -0.23 -0.00    -0.046 A 
DOCKED: ATOM      8  C6 AHYB A 201      -0.118  20.664   0.500 -0.22 +0.00    +0.008 A 
DOCKED: ATOM      9  C5 AHYB A 201      -0.864  21.479  -0.440 -0.30 +0.00    +0.001 A 
DOCKED: ATOM     10  C4 AHYB A 201      -1.138  22.781  -0.150 -0.38 +0.00    +0.012 A 
DOCKED: ATOM     11  C9 AHYB A 201      -0.699  23.372   1.084 -0.39 -0.01    -0.025 A 
DOCKED: ATOM     12  C8 AHYB A 201       0.031  22.622   2.015 -0.27 -0.00    -0.020 A 
DOCKED: ATOM     13  C10AHYB A 201      -1.015  24.745   1.363 -0.45 +0.00    +0.012 A 
DOCKED: ATOM     14  C13AHYB A 201       0.461  23.216   3.208 -0.33 +0.00    +0.013 A 
DOCKED: ATOM     15  C12AHYB A 201       0.164  24.555   3.475 -0.52 -0.00    +0.001 A 
DOCKED: ATOM     16  C11AHYB A 201      -0.586  25.314   2.533 -0.50 -0.00    +0.001 A 
DOCKED: ENDBRANCH   6   7
DOCKED: ENDBRANCH   5   6
DOCKED: BRANCH   5  17
DOCKED: ATOM     17  C36AHYB A 201       2.324  18.205   3.198 -0.08 -0.06    +0.155 C 
DOCKED: BRANCH  17  18
DOCKED: ATOM     18  S1 AHYB A 201       3.075  19.150   4.514 -0.39 -0.03    +0.152 S 
DOCKED: ATOM     19  O2 AHYB A 201       4.076  18.287   5.077 -0.78 +0.00    -0.227 OA
DOCKED: ATOM     20  O3 AHYB A 201       3.461  20.456   4.091 -0.16 +0.07    -0.227 OA
DOCKED: BRANCH  18  21
DOCKED: ATOM     21  C38AHYB A 201       1.749  19.392   5.769 -0.43 -0.00    +0.053 C 
DOCKED: ATOM     22  C37AHYB A 201       1.430  20.896   5.966 -0.36 -0.00    +0.031 C 
DOCKED: ATOM     23  C39AHYB A 201       2.350  18.880   7.101 -0.51 -0.00    +0.031 C 
DOCKED: ATOM     24  C40AHYB A 201       0.493  18.573   5.381 -0.38 -0.01    +0.031 C 
DOCKED: ENDBRANCH  18  21
DOCKED: ENDBRANCH  17  18
DOCKED: ENDBRANCH   5  17
DOCKED: ENDBRANCH   3   5
DOCKED: BRANCH   1  25
DOCKED: ATOM     25  C26AHYB A 201       5.211  20.425   0.919 -0.13 -0.03    +0.180 C 
DOCKED: BRANCH  25  26
DOCKED: ATOM     26  C27AHYB A 201       6.413  20.090   1.883 -0.07 -0.06    +0.241 C 
DOCKED: ATOM     27  N16AHYB A 201       6.194  20.537   3.174 -0.05 +0.12    -0.352 N 
DOCKED: ATOM     28  H16AHYB A 201       5.317  21.014   3.381 -0.38 -0.08    +0.163 HD
DOCKED: ATOM     29  O28AHYB A 201       7.406  19.450   1.578 -0.02 +0.07    -0.271 OA
DOCKED: BRANCH  27  30
DOCKED: ATOM     30  C17AHYB A 201       7.169  20.358   4.264 -0.15 -0.04    +0.112 C 
DOCKED: BRANCH  30  31
DOCKED: ATOM     31  C15AHYB A 201       6.376  20.471   5.596 -0.21 -0.05    +0.189 C 
DOCKED: BRANCH  31  32
DOCKED: ATOM     32  O14AHYB A 201       5.505  21.647   5.419 -0.66 +0.01    -0.399 OA
DOCKED: ATOM     33  H14AHYB A 201       4.876  21.387   4.756 -0.46 -0.07    +0.209 HD
DOCKED: ENDBRANCH  31  32
DOCKED: ENDBRANCH  30  31
DOCKED: BRANCH  30  34
DOCKED: ATOM     34  C18AHYB A 201       8.236  21.471   4.134 -0.10 -0.01    +0.065 C 
DOCKED: BRANCH  34  35
DOCKED: ATOM     35  C19AHYB A 201       9.327  21.354   3.090 -0.02 +0.01    -0.056 A 
DOCKED: ATOM     36  C20AHYB A 201       9.479  22.256   2.030 -0.02 -0.00    +0.007 A 
DOCKED: ATOM     37  C21AHYB A 201      10.526  22.172   1.104 -0.00 -0.00    +0.001 A 
DOCKED: ATOM     38  C22AHYB A 201      11.459  21.137   1.236 +0.00 -0.00    +0.000 A 
DOCKED: ATOM     39  C23AHYB A 201      11.346  20.240   2.296 -0.00 -0.00    +0.001 A 
DOCKED: ATOM     40  C24AHYB A 201      10.294  20.342   3.211 -0.02 -0.00    +0.007 A 
DOCKED: ENDBRANCH  34  35
DOCKED: ENDBRANCH  30  34
DOCKED: ENDBRANCH  27  30
DOCKED: ENDBRANCH  25  26
DOCKED: BRANCH  25  41
DOCKED: ATOM     41  C29AHYB A 201       5.162  21.918   0.510 -0.17 -0.00    +0.009 C 
DOCKED: ATOM     42  C30AHYB A 201       6.272  22.725   1.202 -0.14 -0.00    +0.012 C 
DOCKED: ATOM     43  C31AHYB A 201       5.265  21.958  -1.033 -0.30 -0.00    +0.012 C 
DOCKED: ENDBRANCH  25  41
DOCKED: ENDBRANCH   1  25
DOCKED: TORSDOF 14
DOCKED: TER
DOCKED: ENDMDL
________________________________________________________________________________


	BEGINNING GENETIC ALGORITHM DOCKING 2 of 10
Run: 2 Seed: 917142601 1378737752 [ Run 2 of 10 GA/GALS ]
Beginning LAMARCKIAN GENETIC ALGORITHM (LGA), with a maximum of 2500000 energy evaluations.

Final-Value: -13.892


	FINAL GENETIC ALGORITHM DOCKED STATE
	_______________________________________________


Detailed state:  trans 5.413 20.226 2.899 quatxyzw 0.019238 0.009843 0.013923 -0.999670 center 5.368 20.063 2.466 ntor 14 -25.7119 -178.8287 105.1656 -173.6526 -74.5643 -70.9174 -4.6440 -24.9923 -29.0242 -70.1632 177.4891 -131.2884 13.3244 155.7947
State:	  5.413  20.226   2.899   0.748  0.383  0.542 -2.946    -25.71 -178.83  105.17 -173.65  -74.56  -70.92   -4.64  -24.99  -29.02  -70.16  177.49 -131.29   13.32  155.79

DOCKED: MODEL        2
DOCKED: USER    Run = 2
DOCKED: USER    DPF = dock.dpf
DOCKED: USER  
DOCKED: USER    Estimated Free Energy of Binding    =   -5.61 kcal/mol  [=(1)+(2)+(3)-(4)]
DOCKED: USER    Estimated Inhibition Constant, Ki   =   77.77 uM (micromolar)  [Temperature = 298.15 K]
DOCKED: USER    
DOCKED: USER    (1) Final Intermolecular Energy     =   -9.78 kcal/mol
DOCKED: USER        vdW + Hbond + desolv Energy     =   -9.69 kcal/mol
DOCKED: USER        Electrostatic Energy            =   -0.10 kcal/mol
DOCKED: USER    (2) Final Total Internal Energy     =   -4.11 kcal/mol
DOCKED: USER    (3) Torsional Free Energy           =   +4.18 kcal/mol
DOCKED: USER    (4) Unbound System's Energy  [=(2)] =   -4.11 kcal/mol
DOCKED: USER    
DOCKED: USER    
DOCKED: USER    NEWDPF move lig1fmb.pdbqt
DOCKED: USER    NEWDPF about 5.368000 20.063000 2.466000
DOCKED: USER    NEWDPF tran0 5.412844 20.226288 2.899477
DOCKED: USER    NEWDPF quaternion0 0.019238 0.009843 0.013923 -0.999670
DOCKED: USER    NEWDPF axisangle0 0.748366 0.382908 0.541599 -2.946148
DOCKED: USER    NEWDPF quat0 0.748366 0.382908 0.541599 -2.946148
DOCKED: USER    NEWDPF dihe0 -25.71 -178.83 105.17 -173.65 -74.56 -70.92 -4.64 -24.99 -29.02 -70.16 177.49 -131.29 13.32 155.79 
DOCKED: USER  keepresnum = 1 
DOCKED: USER  
DOCKED: REMARK  14 active torsions:
DOCKED: REMARK  status: ('A' for Active; 'I' for Inactive)
DOCKED: REMARK    1  A    between atoms: S1@A_1  and  C36@A_39 
DOCKED: REMARK    2  A    between atoms: S1@A_1  and  C38@A_41 
DOCKED: REMARK    3  A    between atoms: C7@A_7  and  C35@A_38 
DOCKED: REMARK    4  A    between atoms: O14@A_14  and  C15@A_16 
DOCKED: REMARK    5  A    between atoms: C15@A_16  and  C17@A_19 
DOCKED: REMARK    6  A    between atoms: N16@A_17  and  C17@A_19 
DOCKED: REMARK       I    between atoms: N16@A_17  and  C27@A_30 
DOCKED: REMARK    7  A    between atoms: C17@A_19  and  C18@A_20 
DOCKED: REMARK    8  A    between atoms: C18@A_20  and  C19@A_21 
DOCKED: REMARK    9  A    between atoms: N25@A_27  and  C26@A_29 
DOCKED: REMARK       I    between atoms: N25@A_27  and  C32@A_35 
DOCKED: REMARK   10  A    between atoms: C26@A_29  and  C27@A_30 
DOCKED: REMARK   11  A    between atoms: C26@A_29  and  C29@A_32 
DOCKED: REMARK   12  A    between atoms: C32@A_35  and  C34@A_37 
DOCKED: REMARK   13  A    between atoms: C34@A_37  and  C35@A_38 
DOCKED: REMARK   14  A    between atoms: C34@A_37  and  C36@A_39 
DOCKED: USER                              x       y       z     vdW  Elec       q    Type
DOCKED: USER                           _______ _______ _______ _____ _____    ______ ____
DOCKED: ROOT
DOCKED: ATOM      1  N25AHYB A 201       3.768  20.030   4.071 -0.09 +0.10    -0.347 N 
DOCKED: ATOM      2  H25AHYB A 201       3.882  20.990   3.747 -0.47 -0.10    +0.163 HD
DOCKED: ATOM      3  C32AHYB A 201       4.873  19.372   4.519 -0.23 -0.06    +0.223 C 
DOCKED: ATOM      4  O33AHYB A 201       4.850  18.196   4.903 -0.87 +0.03    -0.273 OA
DOCKED: ENDROOT
DOCKED: BRANCH   3   5
DOCKED: ATOM      5  C34AHYB A 201       6.194  20.163   4.430 -0.21 -0.03    +0.096 C 
DOCKED: BRANCH   5   6
DOCKED: ATOM      6  C35AHYB A 201       5.928  21.485   5.195 -0.16 -0.01    +0.054 C 
DOCKED: BRANCH   6   7
DOCKED: ATOM      7  C7 AHYB A 201       6.143  21.268   6.704 -0.27 +0.00    -0.046 A 
DOCKED: ATOM      8  C6 AHYB A 201       5.648  20.231   7.411 -0.32 -0.00    +0.008 A 
DOCKED: ATOM      9  C5 AHYB A 201       5.890  20.140   8.840 -0.23 -0.00    +0.001 A 
DOCKED: ATOM     10  C4 AHYB A 201       6.615  21.103   9.474 -0.24 -0.00    +0.012 A 
DOCKED: ATOM     11  C9 AHYB A 201       7.152  22.221   8.750 -0.23 +0.00    -0.025 A 
DOCKED: ATOM     12  C8 AHYB A 201       6.934  22.352   7.372 -0.26 +0.00    -0.020 A 
DOCKED: ATOM     13  C10AHYB A 201       7.921  23.213   9.448 -0.18 -0.00    +0.012 A 
DOCKED: ATOM     14  C13AHYB A 201       7.455  23.454   6.683 -0.24 -0.00    +0.013 A 
DOCKED: ATOM     15  C12AHYB A 201       8.194  24.425   7.364 -0.23 -0.00    +0.001 A 
DOCKED: ATOM     16  C11AHYB A 201       8.422  24.288   8.761 -0.21 -0.00    +0.001 A 
DOCKED: ENDBRANCH   6   7
DOCKED: ENDBRANCH   5   6
DOCKED: BRANCH   5  17
DOCKED: ATOM     17  C36AHYB A 201       6.636  20.435   2.956 -0.11 -0.05    +0.155 C 
DOCKED: BRANCH  17  18
DOCKED: ATOM     18  S1 AHYB A 201       8.074  19.462   2.542 -0.08 -0.06    +0.152 S 
DOCKED: ATOM     19  O2 AHYB A 201       8.878  20.309   1.705 -0.01 +0.04    -0.227 OA
DOCKED: ATOM     20  O3 AHYB A 201       8.677  18.870   3.691 -0.09 +0.19    -0.227 OA
DOCKED: BRANCH  18  21
DOCKED: ATOM     21  C38AHYB A 201       7.449  18.064   1.518 -0.09 -0.02    +0.053 C 
DOCKED: ATOM     22  C37AHYB A 201       8.014  18.127   0.076 -0.03 -0.00    +0.031 C 
DOCKED: ATOM     23  C39AHYB A 201       5.921  18.288   1.413 -0.13 -0.01    +0.031 C 
DOCKED: ATOM     24  C40AHYB A 201       7.761  16.716   2.212 -0.14 -0.03    +0.031 C 
DOCKED: ENDBRANCH  18  21
DOCKED: ENDBRANCH  17  18
DOCKED: ENDBRANCH   5  17
DOCKED: ENDBRANCH   3   5
DOCKED: BRANCH   1  25
DOCKED: ATOM     25  C26AHYB A 201       2.406  19.436   4.024 -0.23 -0.04    +0.180 C 
DOCKED: BRANCH  25  26
DOCKED: ATOM     26  C27AHYB A 201       2.017  19.552   2.501 -0.16 -0.06    +0.241 C 
DOCKED: ATOM     27  N16AHYB A 201       2.279  20.808   1.984 -0.10 +0.04    -0.352 N 
DOCKED: ATOM     28  H16AHYB A 201       2.687  21.512   2.599 -0.44 -0.05    +0.163 HD
DOCKED: ATOM     29  O28AHYB A 201       1.595  18.641   1.808 -0.16 +0.11    -0.271 OA
DOCKED: BRANCH  27  30
DOCKED: ATOM     30  C17AHYB A 201       1.997  21.179   0.586 -0.03 +0.02    +0.112 C 
DOCKED: BRANCH  30  31
DOCKED: ATOM     31  C15AHYB A 201       0.498  20.854   0.331 -0.23 +0.02    +0.189 C 
DOCKED: BRANCH  31  32
DOCKED: ATOM     32  O14AHYB A 201      -0.108  22.143  -0.051 -0.84 -0.20    -0.399 OA
DOCKED: ATOM     33  H14AHYB A 201      -0.862  21.910  -0.580 +0.06 +0.06    +0.209 HD
DOCKED: ENDBRANCH  31  32
DOCKED: ENDBRANCH  30  31
DOCKED: BRANCH  30  34
DOCKED: ATOM     34  C18AHYB A 201       2.930  20.343  -0.323 -0.26 +0.00    +0.065 C 
DOCKED: BRANCH  34  35
DOCKED: ATOM     35  C19AHYB A 201       4.370  20.767  -0.523 -0.21 +0.00    -0.056 A 
DOCKED: ATOM     36  C20AHYB A 201       5.060  21.595   0.370 -0.20 -0.00    +0.007 A 
DOCKED: ATOM     37  C21AHYB A 201       6.409  21.934   0.206 -0.17 -0.00    +0.001 A 
DOCKED: ATOM     38  C22AHYB A 201       7.098  21.430  -0.903 -0.06 -0.00    +0.000 A 
DOCKED: ATOM     39  C23AHYB A 201       6.443  20.583  -1.794 -0.06 -0.00    +0.001 A 
DOCKED: ATOM     40  C24AHYB A 201       5.096  20.256  -1.612 -0.11 -0.00    +0.007 A 
DOCKED: ENDBRANCH  34  35
DOCKED: ENDBRANCH  30  34
DOCKED: ENDBRANCH  27  30
DOCKED: ENDBRANCH  25  26
DOCKED: BRANCH  25  41
DOCKED: ATOM     41  C29AHYB A 201       1.383  20.120   4.965 -0.37 -0.00    +0.009 C 
DOCKED: ATOM     42  C30AHYB A 201       1.388  19.474   6.360 -0.52 -0.00    +0.012 C 
DOCKED: ATOM     43  C31AHYB A 201       1.747  21.622   4.999 -0.41 -0.00    +0.012 C 
DOCKED: ENDBRANCH  25  41
DOCKED: ENDBRANCH   1  25
DOCKED: TORSDOF 14
DOCKED: TER
DOCKED: ENDMDL
________________________________________________________________________________


	BEGINNING GENETIC ALGORITHM DOCKING 3 of 10
Run: 3 Seed: 1079312855 830060239 [ Run 3 of 10 GA/GALS ]
Beginning LAMARCKIAN GENETIC ALGORITHM (LGA), with a maximum of 2500000 energy evaluations.

Final-Value: -14.940


	FINAL GENETIC ALGORITHM DOCKED STATE
	_______________________________________________


Detailed state:  trans 3.901 20.145 2.600 quatxyzw 0.176629 0.336337 -0.002112 -0.925027 center 5.368 20.063 2.466 ntor 14 -82.4213 11.8986 132.5799 103.3576 5.2845 -20.6899 31.3155 150.8179 10.3177 12.5583 -37.1259 -46.0345 40.5019 26.2128
State:	  3.901  20.145   2.600   0.465  0.885 -0.006 -44.655    -82.42   11.90  132.58  103.36    5.28  -20.69   31.32  150.82   10.32   12.56  -37.13  -46.03   40.50   26.21

DOCKED: MODEL        3
DOCKED: USER    Run = 3
DOCKED: USER    DPF = dock.dpf
DOCKED: USER  
DOCKED: USER    Estimated Free Energy of Binding    =   -4.79 kcal/mol  [=(1)+(2)+(3)-(4)]
DOCKED: USER    Estimated Inhibition Constant, Ki   =  305.70 uM (micromolar)  [Temperature = 298.15 K]
DOCKED: USER    
DOCKED: USER    (1) Final Intermolecular Energy     =   -8.97 kcal/mol
DOCKED: USER        vdW + Hbond + desolv Energy     =   -8.97 kcal/mol
DOCKED: USER        Electrostatic Energy            =   +0.00 kcal/mol
DOCKED: USER    (2) Final Total Internal Energy     =   -5.97 kcal/mol
DOCKED: USER    (3) Torsional Free Energy           =   +4.18 kcal/mol
DOCKED: USER    (4) Unbound System's Energy  [=(2)] =   -5.97 kcal/mol
DOCKED: USER    
DOCKED: USER    
DOCKED: USER    NEWDPF move lig1fmb.pdbqt
DOCKED: USER    NEWDPF about 5.368000 20.063000 2.466000
DOCKED: USER    NEWDPF tran0 3.901152 20.144873 2.599545
DOCKED: USER    NEWDPF quaternion0 0.176629 0.336337 -0.002112 -0.925027
DOCKED: USER    NEWDPF axisangle0 0.464934 0.885328 -0.005560 -44.655065
DOCKED: USER    NEWDPF quat0 0.464934 0.885328 -0.005560 -44.655065
DOCKED: USER    NEWDPF dihe0 -82.42 11.90 132.58 103.36 5.28 -20.69 31.32 150.82 10.32 12.56 -37.13 -46.03 40.50 26.21 
DOCKED: USER  keepresnum = 1 
DOCKED: USER  
DOCKED: REMARK  14 active torsions:
DOCKED: REMARK  status: ('A' for Active; 'I' for Inactive)
DOCKED: REMARK    1  A    between atoms: S1@A_1  and  C36@A_39 
DOCKED: REMARK    2  A    between atoms: S1@A_1  and  C38@A_41 
DOCKED: REMARK    3  A    between atoms: C7@A_7  and  C35@A_38 
DOCKED: REMARK    4  A    between atoms: O14@A_14  and  C15@A_16 
DOCKED: REMARK    5  A    between atoms: C15@A_16  and  C17@A_19 
DOCKED: REMARK    6  A    between atoms: N16@A_17  and  C17@A_19 
DOCKED: REMARK       I    between atoms: N16@A_17  and  C27@A_30 
DOCKED: REMARK    7  A    between atoms: C17@A_19  and  C18@A_20 
DOCKED: REMARK    8  A    between atoms: C18@A_20  and  C19@A_21 
DOCKED: REMARK    9  A    between atoms: N25@A_27  and  C26@A_29 
DOCKED: REMARK       I    between atoms: N25@A_27  and  C32@A_35 
DOCKED: REMARK   10  A    between atoms: C26@A_29  and  C27@A_30 
DOCKED: REMARK   11  A    between atoms: C26@A_29  and  C29@A_32 
DOCKED: REMARK   12  A    between atoms: C32@A_35  and  C34@A_37 
DOCKED: REMARK   13  A    between atoms: C34@A_37  and  C35@A_38 
DOCKED: REMARK   14  A    between atoms: C34@A_37  and  C36@A_39 
DOCKED: USER                              x       y       z     vdW  Elec       q    Type
DOCKED: USER                           _______ _______ _______ _____ _____    ______ ____
DOCKED: ROOT
DOCKED: ATOM      1  N25AHYB A 201       3.306  19.478   4.421 -0.12 +0.07    -0.347 N 
DOCKED: ATOM      2  H25AHYB A 201       3.313  20.497   4.382 -0.04 -0.04    +0.163 HD
DOCKED: ATOM      3  C32AHYB A 201       4.365  18.811   3.884 -0.24 -0.06    +0.223 C 
DOCKED: ATOM      4  O33AHYB A 201       4.440  17.576   3.851 -0.60 +0.08    -0.273 OA
DOCKED: ENDROOT
DOCKED: BRANCH   3   5
DOCKED: ATOM      5  C34AHYB A 201       5.440  19.700   3.225 -0.19 -0.03    +0.096 C 
DOCKED: BRANCH   5   6
DOCKED: ATOM      6  C35AHYB A 201       4.815  20.165   1.884 -0.17 -0.01    +0.054 C 
DOCKED: BRANCH   6   7
DOCKED: ATOM      7  C7 AHYB A 201       5.644  21.319   1.293 -0.12 +0.01    -0.046 A 
DOCKED: ATOM      8  C6 AHYB A 201       6.661  21.941   1.926 -0.13 -0.00    +0.008 A 
DOCKED: ATOM      9  C5 AHYB A 201       7.358  23.039   1.284 -0.17 -0.00    +0.001 A 
DOCKED: ATOM     10  C4 AHYB A 201       6.988  23.451   0.040 -0.20 -0.00    +0.012 A 
DOCKED: ATOM     11  C9 AHYB A 201       5.907  22.813  -0.659 -0.26 +0.00    -0.025 A 
DOCKED: ATOM     12  C8 AHYB A 201       5.202  21.755  -0.071 -0.23 +0.00    -0.020 A 
DOCKED: ATOM     13  C10AHYB A 201       5.549  23.266  -1.975 -0.32 -0.00    +0.012 A 
DOCKED: ATOM     14  C13AHYB A 201       4.144  21.151  -0.761 -0.28 +0.00    +0.013 A 
DOCKED: ATOM     15  C12AHYB A 201       3.788  21.599  -2.036 -0.26 +0.00    +0.001 A 
DOCKED: ATOM     16  C11AHYB A 201       4.509  22.668  -2.637 -0.32 +0.00    +0.001 A 
DOCKED: ENDBRANCH   6   7
DOCKED: ENDBRANCH   5   6
DOCKED: BRANCH   5  17
DOCKED: ATOM     17  C36AHYB A 201       6.789  18.946   2.995 -0.14 -0.08    +0.155 C 
DOCKED: BRANCH  17  18
DOCKED: ATOM     18  S1 AHYB A 201       6.584  17.645   1.790 -0.19 -0.08    +0.152 S 
DOCKED: ATOM     19  O2 AHYB A 201       6.272  16.468   2.551 -0.27 +0.21    -0.227 OA
DOCKED: ATOM     20  O3 AHYB A 201       5.709  18.023   0.729 -0.08 +0.07    -0.227 OA
DOCKED: BRANCH  18  21
DOCKED: ATOM     21  C38AHYB A 201       8.243  17.415   1.023 -0.06 -0.02    +0.053 C 
DOCKED: ATOM     22  C37AHYB A 201       9.377  17.688   2.044 -0.07 -0.01    +0.031 C 
DOCKED: ATOM     23  C39AHYB A 201       8.344  18.510  -0.066 -0.01 -0.00    +0.031 C 
DOCKED: ATOM     24  C40AHYB A 201       8.347  16.003   0.396 -0.05 -0.01    +0.031 C 
DOCKED: ENDBRANCH  18  21
DOCKED: ENDBRANCH  17  18
DOCKED: ENDBRANCH   5  17
DOCKED: ENDBRANCH   3   5
DOCKED: BRANCH   1  25
DOCKED: ATOM     25  C26AHYB A 201       2.140  18.814   5.061 -0.27 -0.02    +0.180 C 
DOCKED: BRANCH  25  26
DOCKED: ATOM     26  C27AHYB A 201       1.092  18.721   3.887 -0.19 -0.07    +0.241 C 
DOCKED: ATOM     27  N16AHYB A 201       1.686  18.434   2.671 -0.12 +0.15    -0.352 N 
DOCKED: ATOM     28  H16AHYB A 201       2.698  18.307   2.643 -0.08 -0.07    +0.163 HD
DOCKED: ATOM     29  O28AHYB A 201      -0.119  18.817   4.011 -0.21 +0.10    -0.271 OA
DOCKED: BRANCH  27  30
DOCKED: ATOM     30  C17AHYB A 201       0.927  18.303   1.415 -0.23 -0.06    +0.112 C 
DOCKED: BRANCH  30  31
DOCKED: ATOM     31  C15AHYB A 201       1.828  17.508   0.429 -0.05 -0.10    +0.189 C 
DOCKED: BRANCH  31  32
DOCKED: ATOM     32  O14AHYB A 201       3.141  18.176   0.494 -0.05 +0.15    -0.399 OA
DOCKED: ATOM     33  H14AHYB A 201       3.651  17.651   1.100 -0.45 -0.16    +0.209 HD
DOCKED: ENDBRANCH  31  32
DOCKED: ENDBRANCH  30  31
DOCKED: BRANCH  30  34
DOCKED: ATOM     34  C18AHYB A 201       0.622  19.728   0.895 -0.17 -0.01    +0.065 C 
DOCKED: BRANCH  34  35
DOCKED: ATOM     35  C19AHYB A 201       0.138  20.796   1.854 -0.18 +0.00    -0.056 A 
DOCKED: ATOM     36  C20AHYB A 201       0.964  21.800   2.371 -0.15 +0.00    +0.007 A 
DOCKED: ATOM     37  C21AHYB A 201       0.492  22.816   3.211 -0.33 +0.00    +0.001 A 
DOCKED: ATOM     38  C22AHYB A 201      -0.864  22.827   3.557 -0.30 +0.00    +0.000 A 
DOCKED: ATOM     39  C23AHYB A 201      -1.714  21.854   3.036 -0.24 +0.00    +0.001 A 
DOCKED: ATOM     40  C24AHYB A 201      -1.224  20.848   2.198 -0.17 -0.00    +0.007 A 
DOCKED: ENDBRANCH  34  35
DOCKED: ENDBRANCH  30  34
DOCKED: ENDBRANCH  27  30
DOCKED: ENDBRANCH  25  26
DOCKED: BRANCH  25  41
DOCKED: ATOM     41  C29AHYB A 201       1.592  19.556   6.305 -0.51 -0.00    +0.009 C 
DOCKED: ATOM     42  C30AHYB A 201       2.650  19.641   7.417 -0.39 +0.00    +0.012 C 
DOCKED: ATOM     43  C31AHYB A 201       1.119  20.946   5.820 -0.34 -0.00    +0.012 C 
DOCKED: ENDBRANCH  25  41
DOCKED: ENDBRANCH   1  25
DOCKED: TORSDOF 14
DOCKED: TER
DOCKED: ENDMDL
________________________________________________________________________________


	BEGINNING GENETIC ALGORITHM DOCKING 4 of 10
Run: 4 Seed: 1696751568 1262930929 [ Run 4 of 10 GA/GALS ]
Beginning LAMARCKIAN GENETIC ALGORITHM (LGA), with a maximum of 2500000 energy evaluations.

Final-Value: -15.006


	FINAL GENETIC ALGORITHM DOCKED STATE
	_______________________________________________


Detailed state:  trans 6.351 20.212 4.390 quatxyzw -0.266372 0.764796 -0.066281 0.582872 center 5.368 20.063 2.466 ntor 14 113.9652 49.5693 121.6527 -173.0264 83.5541 -60.7907 -11.0784 -67.4628 120.7801 -17.2992 -12.0184 -34.1206 54.2204 -2.9114
State:	  6.351  20.212   4.390  -0.328  0.941 -0.082 108.694    113.97   49.57  121.65 -173.03   83.55  -60.79  -11.08  -67.46  120.78  -17.30  -12.02  -34.12   54.22   -2.91

DOCKED: MODEL        4
DOCKED: USER    Run = 4
DOCKED: USER    DPF = dock.dpf
DOCKED: USER  
DOCKED: USER    Estimated Free Energy of Binding    =   -4.21 kcal/mol  [=(1)+(2)+(3)-(4)]
DOCKED: USER    Estimated Inhibition Constant, Ki   =  819.81 uM (micromolar)  [Temperature = 298.15 K]
DOCKED: USER    
DOCKED: USER    (1) Final Intermolecular Energy     =   -8.39 kcal/mol
DOCKED: USER        vdW + Hbond + desolv Energy     =   -8.21 kcal/mol
DOCKED: USER        Electrostatic Energy            =   -0.17 kcal/mol
DOCKED: USER    (2) Final Total Internal Energy     =   -6.62 kcal/mol
DOCKED: USER    (3) Torsional Free Energy           =   +4.18 kcal/mol
DOCKED: USER    (4) Unbound System's Energy  [=(2)] =   -6.62 kcal/mol
DOCKED: USER    
DOCKED: USER    
DOCKED: USER    NEWDPF move lig1fmb.pdbqt
DOCKED: USER    NEWDPF about 5.368000 20.063000 2.466000
DOCKED: USER    NEWDPF tran0 6.351161 20.211948 4.389522
DOCKED: USER    NEWDPF quaternion0 -0.266372 0.764796 -0.066281 0.582872
DOCKED: USER    NEWDPF axisangle0 -0.327816 0.941213 -0.081570 108.694464
DOCKED: USER    NEWDPF quat0 -0.327816 0.941213 -0.081570 108.694464
DOCKED: USER    NEWDPF dihe0 113.97 49.57 121.65 -173.03 83.55 -60.79 -11.08 -67.46 120.78 -17.30 -12.02 -34.12 54.22 -2.91 
DOCKED: USER  keepresnum = 1 
DOCKED: USER  
DOCKED: REMARK  14 active torsions:
DOCKED: REMARK  status: ('A' for Active; 'I' for Inactive)
DOCKED: REMARK    1  A    between atoms: S1@A_1  and  C36@A_39 
DOCKED: REMARK    2  A    between atoms: S1@A_1  and  C38@A_41 
DOCKED: REMARK    3  A    between atoms: C7@A_7  and  C35@A_38 
DOCKED: REMARK    4  A    between atoms: O14@A_14  and  C15@A_16 
DOCKED: REMARK    5  A    between atoms: C15@A_16  and  C17@A_19 
DOCKED: REMARK    6  A    between atoms: N16@A_17  and  C17@A_19 
DOCKED: REMARK       I    between atoms: N16@A_17  and  C27@A_30 
DOCKED: REMARK    7  A    between atoms: C17@A_19  and  C18@A_20 
DOCKED: REMARK    8  A    between atoms: C18@A_20  and  C19@A_21 
DOCKED: REMARK    9  A    between atoms: N25@A_27  and  C26@A_29 
DOCKED: REMARK       I    between atoms: N25@A_27  and  C32@A_35 
DOCKED: REMARK   10  A    between atoms: C26@A_29  and  C27@A_30 
DOCKED: REMARK   11  A    between atoms: C26@A_29  and  C29@A_32 
DOCKED: REMARK   12  A    between atoms: C32@A_35  and  C34@A_37 
DOCKED: REMARK   13  A    between atoms: C34@A_37  and  C35@A_38 
DOCKED: REMARK   14  A    between atoms: C34@A_37  and  C36@A_39 
DOCKED: USER                              x       y       z     vdW  Elec       q    Type
DOCKED: USER                           _______ _______ _______ _____ _____    ______ ____
DOCKED: ROOT
DOCKED: ATOM      1  N25AHYB A 201       5.721  20.202   2.461 -0.05 +0.11    -0.347 N 
DOCKED: ATOM      2  H25AHYB A 201       5.543  21.103   2.906 -0.30 -0.07    +0.163 HD
DOCKED: ATOM      3  C32AHYB A 201       5.429  19.074   3.164 -0.17 -0.09    +0.223 C 
DOCKED: ATOM      4  O33AHYB A 201       5.636  17.934   2.730 -0.22 +0.16    -0.273 OA
DOCKED: ENDROOT
DOCKED: BRANCH   3   5
DOCKED: ATOM      5  C34AHYB A 201       4.905  19.306   4.597 -0.30 -0.03    +0.096 C 
DOCKED: BRANCH   5   6
DOCKED: ATOM      6  C35AHYB A 201       6.103  18.979   5.526 -0.22 -0.03    +0.054 C 
DOCKED: BRANCH   6   7
DOCKED: ATOM      7  C7 AHYB A 201       6.210  20.041   6.634 -0.26 +0.01    -0.046 A 
DOCKED: ATOM      8  C6 AHYB A 201       5.812  19.864   7.912 -0.30 -0.00    +0.008 A 
DOCKED: ATOM      9  C5 AHYB A 201       5.935  20.947   8.871 -0.29 -0.00    +0.001 A 
DOCKED: ATOM     10  C4 AHYB A 201       6.450  22.147   8.486 -0.27 -0.00    +0.012 A 
DOCKED: ATOM     11  C9 AHYB A 201       6.879  22.368   7.133 -0.26 +0.00    -0.025 A 
DOCKED: ATOM     12  C8 AHYB A 201       6.770  21.353   6.174 -0.23 +0.00    -0.020 A 
DOCKED: ATOM     13  C10AHYB A 201       7.428  23.643   6.764 -0.25 -0.00    +0.012 A 
DOCKED: ATOM     14  C13AHYB A 201       7.182  21.588   4.857 -0.18 -0.00    +0.013 A 
DOCKED: ATOM     15  C12AHYB A 201       7.705  22.832   4.494 -0.17 -0.00    +0.001 A 
DOCKED: ATOM     16  C11AHYB A 201       7.825  23.860   5.470 -0.20 -0.00    +0.001 A 
DOCKED: ENDBRANCH   6   7
DOCKED: ENDBRANCH   5   6
DOCKED: BRANCH   5  17
DOCKED: ATOM     17  C36AHYB A 201       3.661  18.422   4.935 -0.17 -0.01    +0.155 C 
DOCKED: BRANCH  17  18
DOCKED: ATOM     18  S1 AHYB A 201       2.634  19.223   6.155 -0.54 -0.01    +0.152 S 
DOCKED: ATOM     19  O2 AHYB A 201       2.351  18.212   7.136 -0.76 +0.01    -0.227 OA
DOCKED: ATOM     20  O3 AHYB A 201       3.184  20.464   6.596 -0.30 +0.00    -0.227 OA
DOCKED: BRANCH  18  21
DOCKED: ATOM     21  C38AHYB A 201       1.065  19.641   5.286 -0.37 -0.01    +0.053 C 
DOCKED: ATOM     22  C37AHYB A 201      -0.137  18.879   5.900 -0.51 -0.01    +0.031 C 
DOCKED: ATOM     23  C39AHYB A 201       1.245  19.110   3.843 -0.31 -0.01    +0.031 C 
DOCKED: ATOM     24  C40AHYB A 201       0.849  21.174   5.286 -0.36 -0.00    +0.031 C 
DOCKED: ENDBRANCH  18  21
DOCKED: ENDBRANCH  17  18
DOCKED: ENDBRANCH   5  17
DOCKED: ENDBRANCH   3   5
DOCKED: BRANCH   1  25
DOCKED: ATOM     25  C26AHYB A 201       6.281  20.205   1.084 -0.08 -0.03    +0.180 C 
DOCKED: BRANCH  25  26
DOCKED: ATOM     26  C27AHYB A 201       7.820  19.960   1.323 -0.01 -0.05    +0.241 C 
DOCKED: ATOM     27  N16AHYB A 201       8.060  18.881   2.154 -0.02 +0.14    -0.352 N 
DOCKED: ATOM     28  H16AHYB A 201       7.261  18.360   2.516 +0.04 -0.09    +0.163 HD
DOCKED: ATOM     29  O28AHYB A 201       8.725  20.588   0.797 -0.00 +0.03    -0.271 OA
DOCKED: BRANCH  27  30
DOCKED: ATOM     30  C17AHYB A 201       9.413  18.449   2.542 -0.06 -0.05    +0.112 C 
DOCKED: BRANCH  30  31
DOCKED: ATOM     31  C15AHYB A 201       9.446  16.901   2.404 -0.06 -0.12    +0.189 C 
DOCKED: BRANCH  31  32
DOCKED: ATOM     32  O14AHYB A 201       8.038  16.510   2.208 -0.08 +0.33    -0.399 OA
DOCKED: ATOM     33  H14AHYB A 201       7.608  16.727   3.027 -0.23 -0.31    +0.209 HD
DOCKED: ENDBRANCH  31  32
DOCKED: ENDBRANCH  30  31
DOCKED: BRANCH  30  34
DOCKED: ATOM     34  C18AHYB A 201       9.655  18.901   4.003 -0.02 -0.05    +0.065 C 
DOCKED: BRANCH  34  35
DOCKED: ATOM     35  C19AHYB A 201      10.191  20.289   4.286 -0.03 +0.02    -0.056 A 
DOCKED: ATOM     36  C20AHYB A 201      10.433  20.773   5.576 -0.03 -0.00    +0.007 A 
DOCKED: ATOM     37  C21AHYB A 201      10.983  22.037   5.824 -0.01 -0.00    +0.001 A 
DOCKED: ATOM     38  C22AHYB A 201      11.298  22.858   4.735 -0.00 -0.00    +0.000 A 
DOCKED: ATOM     39  C23AHYB A 201      11.091  22.391   3.439 -0.00 -0.00    +0.001 A 
DOCKED: ATOM     40  C24AHYB A 201      10.542  21.126   3.213 -0.01 -0.00    +0.007 A 
DOCKED: ENDBRANCH  34  35
DOCKED: ENDBRANCH  30  34
DOCKED: ENDBRANCH  27  30
DOCKED: ENDBRANCH  25  26
DOCKED: BRANCH  25  41
DOCKED: ATOM     41  C29AHYB A 201       5.991  21.499   0.284 -0.20 -0.00    +0.009 C 
DOCKED: ATOM     42  C30AHYB A 201       4.515  21.573  -0.143 -0.24 +0.00    +0.012 C 
DOCKED: ATOM     43  C31AHYB A 201       6.414  22.682   1.184 -0.20 -0.00    +0.012 C 
DOCKED: ENDBRANCH  25  41
DOCKED: ENDBRANCH   1  25
DOCKED: TORSDOF 14
DOCKED: TER
DOCKED: ENDMDL
________________________________________________________________________________


	BEGINNING GENETIC ALGORITHM DOCKING 5 of 10
Run: 5 Seed: 1292804232 749812333 [ Run 5 of 10 GA/GALS ]
Beginning LAMARCKIAN GENETIC ALGORITHM (LGA), with a maximum of 2500000 energy evaluations.

Final-Value: -14.075


	FINAL GENETIC ALGORITHM DOCKED STATE
	_______________________________________________


Detailed state:  trans 4.890 20.362 3.605 quatxyzw -0.021938 -0.017445 0.010159 0.999555 center 5.368 20.063 2.466 ntor 14 66.9191 102.2728 7.2093 39.1649 179.5315 103.9714 127.7949 -51.7463 -21.1084 -58.6171 -62.2370 50.6708 -18.6445 164.3294
State:	  4.890  20.362   3.605  -0.736 -0.585  0.341  3.417     66.92  102.27    7.21   39.16  179.53  103.97  127.79  -51.75  -21.11  -58.62  -62.24   50.67  -18.64  164.33

DOCKED: MODEL        5
DOCKED: USER    Run = 5
DOCKED: USER    DPF = dock.dpf
DOCKED: USER  
DOCKED: USER    Estimated Free Energy of Binding    =   -5.27 kcal/mol  [=(1)+(2)+(3)-(4)]
DOCKED: USER    Estimated Inhibition Constant, Ki   =  137.44 uM (micromolar)  [Temperature = 298.15 K]
DOCKED: USER    
DOCKED: USER    (1) Final Intermolecular Energy     =   -9.44 kcal/mol
DOCKED: USER        vdW + Hbond + desolv Energy     =   -9.39 kcal/mol
DOCKED: USER        Electrostatic Energy            =   -0.05 kcal/mol
DOCKED: USER    (2) Final Total Internal Energy     =   -4.63 kcal/mol
DOCKED: USER    (3) Torsional Free Energy           =   +4.18 kcal/mol
DOCKED: USER    (4) Unbound System's Energy  [=(2)] =   -4.63 kcal/mol
DOCKED: USER    
DOCKED: USER    
DOCKED: USER    NEWDPF move lig1fmb.pdbqt
DOCKED: USER    NEWDPF about 5.368000 20.063000 2.466000
DOCKED: USER    NEWDPF tran0 4.890323 20.362393 3.604802
DOCKED: USER    NEWDPF quaternion0 -0.021938 -0.017445 0.010159 0.999555
DOCKED: USER    NEWDPF axisangle0 -0.735852 -0.585164 0.340742 3.416813
DOCKED: USER    NEWDPF quat0 -0.735852 -0.585164 0.340742 3.416813
DOCKED: USER    NEWDPF dihe0 66.92 102.27 7.21 39.16 179.53 103.97 127.79 -51.75 -21.11 -58.62 -62.24 50.67 -18.64 164.33 
DOCKED: USER  keepresnum = 1 
DOCKED: USER  
DOCKED: REMARK  14 active torsions:
DOCKED: REMARK  status: ('A' for Active; 'I' for Inactive)
DOCKED: REMARK    1  A    between atoms: S1@A_1  and  C36@A_39 
DOCKED: REMARK    2  A    between atoms: S1@A_1  and  C38@A_41 
DOCKED: REMARK    3  A    between atoms: C7@A_7  and  C35@A_38 
DOCKED: REMARK    4  A    between atoms: O14@A_14  and  C15@A_16 
DOCKED: REMARK    5  A    between atoms: C15@A_16  and  C17@A_19 
DOCKED: REMARK    6  A    between atoms: N16@A_17  and  C17@A_19 
DOCKED: REMARK       I    between atoms: N16@A_17  and  C27@A_30 
DOCKED: REMARK    7  A    between atoms: C17@A_19  and  C18@A_20 
DOCKED: REMARK    8  A    between atoms: C18@A_20  and  C19@A_21 
DOCKED: REMARK    9  A    between atoms: N25@A_27  and  C26@A_29 
DOCKED: REMARK       I    between atoms: N25@A_27  and  C32@A_35 
DOCKED: REMARK   10  A    between atoms: C26@A_29  and  C27@A_30 
DOCKED: REMARK   11  A    between atoms: C26@A_29  and  C29@A_32 
DOCKED: REMARK   12  A    between atoms: C32@A_35  and  C34@A_37 
DOCKED: REMARK   13  A    between atoms: C34@A_37  and  C35@A_38 
DOCKED: REMARK   14  A    between atoms: C34@A_37  and  C36@A_39 
DOCKED: USER                              x       y       z     vdW  Elec       q    Type
DOCKED: USER                           _______ _______ _______ _____ _____    ______ ____
DOCKED: ROOT
DOCKED: ATOM      1  N25AHYB A 201       3.257  20.239   4.802 -0.13 +0.07    -0.347 N 
DOCKED: ATOM      2  H25AHYB A 201       3.411  21.194   4.481 -0.38 -0.06    +0.163 HD
DOCKED: ATOM      3  C32AHYB A 201       4.336  19.526   5.229 -0.27 -0.04    +0.223 C 
DOCKED: ATOM      4  O33AHYB A 201       4.263  18.351   5.609 -0.70 -0.01    -0.273 OA
DOCKED: ENDROOT
DOCKED: BRANCH   3   5
DOCKED: ATOM      5  C34AHYB A 201       5.692  20.254   5.122 -0.26 -0.03    +0.096 C 
DOCKED: BRANCH   5   6
DOCKED: ATOM      6  C35AHYB A 201       5.577  21.472   6.075 -0.22 +0.00    +0.054 C 
DOCKED: BRANCH   6   7
DOCKED: ATOM      7  C7 AHYB A 201       6.177  21.120   7.448 -0.27 +0.00    -0.046 A 
DOCKED: ATOM      8  C6 AHYB A 201       6.044  19.927   8.064 -0.29 -0.00    +0.008 A 
DOCKED: ATOM      9  C5 AHYB A 201       6.631  19.713   9.375 -0.22 -0.00    +0.001 A 
DOCKED: ATOM     10  C4 AHYB A 201       7.315  20.716   9.991 -0.16 -0.00    +0.012 A 
DOCKED: ATOM     11  C9 AHYB A 201       7.471  21.999   9.363 -0.19 +0.00    -0.025 A 
DOCKED: ATOM     12  C8 AHYB A 201       6.913  22.250   8.103 -0.26 +0.00    -0.020 A 
DOCKED: ATOM     13  C10AHYB A 201       8.208  23.032  10.036 -0.19 -0.00    +0.012 A 
DOCKED: ATOM     14  C13AHYB A 201       7.064  23.509   7.509 -0.26 -0.00    +0.013 A 
DOCKED: ATOM     15  C12AHYB A 201       7.771  24.518   8.169 -0.28 -0.00    +0.001 A 
DOCKED: ATOM     16  C11AHYB A 201       8.345  24.261   9.444 -0.22 -0.00    +0.001 A 
DOCKED: ENDBRANCH   6   7
DOCKED: ENDBRANCH   5   6
DOCKED: BRANCH   5  17
DOCKED: ATOM     17  C36AHYB A 201       6.023  20.701   3.661 -0.07 -0.05    +0.155 C 
DOCKED: BRANCH  17  18
DOCKED: ATOM     18  S1 AHYB A 201       7.726  20.342   3.266 -0.12 -0.05    +0.152 S 
DOCKED: ATOM     19  O2 AHYB A 201       8.045  19.151   4.003 -0.10 +0.19    -0.227 OA
DOCKED: ATOM     20  O3 AHYB A 201       7.971  20.358   1.860 -0.03 +0.05    -0.227 OA
DOCKED: BRANCH  18  21
DOCKED: ATOM     21  C38AHYB A 201       8.703  21.736   3.968 -0.07 -0.01    +0.053 C 
DOCKED: ATOM     22  C37AHYB A 201       7.891  23.057   3.950 -0.18 -0.00    +0.031 C 
DOCKED: ATOM     23  C39AHYB A 201       9.896  21.927   3.000 -0.02 -0.00    +0.031 C 
DOCKED: ATOM     24  C40AHYB A 201       9.200  21.374   5.389 -0.06 -0.01    +0.031 C 
DOCKED: ENDBRANCH  18  21
DOCKED: ENDBRANCH  17  18
DOCKED: ENDBRANCH   5  17
DOCKED: ENDBRANCH   3   5
DOCKED: BRANCH   1  25
DOCKED: ATOM     25  C26AHYB A 201       1.867  19.711   4.775 -0.26 -0.03    +0.180 C 
DOCKED: BRANCH  25  26
DOCKED: ATOM     26  C27AHYB A 201       1.185  20.559   3.635 -0.18 -0.03    +0.241 C 
DOCKED: ATOM     27  N16AHYB A 201       0.432  19.779   2.775 -0.05 +0.07    -0.352 N 
DOCKED: ATOM     28  H16AHYB A 201       0.382  18.775   2.950 +0.07 -0.07    +0.163 HD
DOCKED: ATOM     29  O28AHYB A 201       1.235  21.775   3.531 -0.22 +0.02    -0.271 OA
DOCKED: BRANCH  27  30
DOCKED: ATOM     30  C17AHYB A 201      -0.299  20.328   1.621 -0.16 -0.01    +0.112 C 
DOCKED: BRANCH  30  31
DOCKED: ATOM     31  C15AHYB A 201      -0.889  19.116   0.847 -0.11 -0.05    +0.189 C 
DOCKED: BRANCH  31  32
DOCKED: ATOM     32  O14AHYB A 201      -1.390  18.207   1.894 -0.11 +0.31    -0.399 OA
DOCKED: ATOM     33  H14AHYB A 201      -0.829  17.442   1.841 -0.49 -0.32    +0.209 HD
DOCKED: ENDBRANCH  31  32
DOCKED: ENDBRANCH  30  31
DOCKED: BRANCH  30  34
DOCKED: ATOM     34  C18AHYB A 201       0.708  21.126   0.758 -0.30 +0.01    +0.065 C 
DOCKED: BRANCH  34  35
DOCKED: ATOM     35  C19AHYB A 201       2.002  20.478   0.312 -0.24 -0.00    -0.056 A 
DOCKED: ATOM     36  C20AHYB A 201       3.154  20.430   1.106 -0.23 -0.00    +0.007 A 
DOCKED: ATOM     37  C21AHYB A 201       4.326  19.777   0.706 -0.16 -0.00    +0.001 A 
DOCKED: ATOM     38  C22AHYB A 201       4.354  19.151  -0.546 -0.10 -0.00    +0.000 A 
DOCKED: ATOM     39  C23AHYB A 201       3.214  19.162  -1.346 -0.13 -0.00    +0.001 A 
DOCKED: ATOM     40  C24AHYB A 201       2.052  19.819  -0.928 -0.21 +0.00    +0.007 A 
DOCKED: ENDBRANCH  34  35
DOCKED: ENDBRANCH  30  34
DOCKED: ENDBRANCH  27  30
DOCKED: ENDBRANCH  25  26
DOCKED: BRANCH  25  41
DOCKED: ATOM     41  C29AHYB A 201       1.125  19.809   6.130 -0.48 -0.00    +0.009 C 
DOCKED: ATOM     42  C30AHYB A 201      -0.354  19.411   5.988 -0.51 -0.00    +0.012 C 
DOCKED: ATOM     43  C31AHYB A 201       1.895  18.908   7.124 -0.57 -0.00    +0.012 C 
DOCKED: ENDBRANCH  25  41
DOCKED: ENDBRANCH   1  25
DOCKED: TORSDOF 14
DOCKED: TER
DOCKED: ENDMDL
________________________________________________________________________________


	BEGINNING GENETIC ALGORITHM DOCKING 6 of 10
Run: 6 Seed: 1779827267 1823690582 [ Run 6 of 10 GA/GALS ]
Beginning LAMARCKIAN GENETIC ALGORITHM (LGA), with a maximum of 2500000 energy evaluations.

Final-Value: -15.348


	FINAL GENETIC ALGORITHM DOCKED STATE
	_______________________________________________


Detailed state:  trans 5.709 20.587 3.530 quatxyzw -0.130927 0.548146 -0.238245 0.790970 center 5.368 20.063 2.466 ntor 14 -6.6406 65.6904 116.5395 -32.5651 -16.5816 -32.8872 26.9045 10.3455 114.6098 13.1229 -27.9552 -39.1202 41.2636 -30.8369
State:	  5.709  20.587   3.530  -0.214  0.896 -0.389 75.447     -6.64   65.69  116.54  -32.57  -16.58  -32.89   26.90   10.35  114.61   13.12  -27.96  -39.12   41.26  -30.84

DOCKED: MODEL        6
DOCKED: USER    Run = 6
DOCKED: USER    DPF = dock.dpf
DOCKED: USER  
DOCKED: USER    Estimated Free Energy of Binding    =   -5.01 kcal/mol  [=(1)+(2)+(3)-(4)]
DOCKED: USER    Estimated Inhibition Constant, Ki   =  211.69 uM (micromolar)  [Temperature = 298.15 K]
DOCKED: USER    
DOCKED: USER    (1) Final Intermolecular Energy     =   -9.19 kcal/mol
DOCKED: USER        vdW + Hbond + desolv Energy     =   -9.03 kcal/mol
DOCKED: USER        Electrostatic Energy            =   -0.16 kcal/mol
DOCKED: USER    (2) Final Total Internal Energy     =   -6.16 kcal/mol
DOCKED: USER    (3) Torsional Free Energy           =   +4.18 kcal/mol
DOCKED: USER    (4) Unbound System's Energy  [=(2)] =   -6.16 kcal/mol
DOCKED: USER    
DOCKED: USER    
DOCKED: USER    NEWDPF move lig1fmb.pdbqt
DOCKED: USER    NEWDPF about 5.368000 20.063000 2.466000
DOCKED: USER    NEWDPF tran0 5.709372 20.586676 3.530243
DOCKED: USER    NEWDPF quaternion0 -0.130927 0.548146 -0.238245 0.790970
DOCKED: USER    NEWDPF axisangle0 -0.213984 0.895875 -0.389382 75.447483
DOCKED: USER    NEWDPF quat0 -0.213984 0.895875 -0.389382 75.447483
DOCKED: USER    NEWDPF dihe0 -6.64 65.69 116.54 -32.57 -16.58 -32.89 26.90 10.35 114.61 13.12 -27.96 -39.12 41.26 -30.84 
DOCKED: USER  keepresnum = 1 
DOCKED: USER  
DOCKED: REMARK  14 active torsions:
DOCKED: REMARK  status: ('A' for Active; 'I' for Inactive)
DOCKED: REMARK    1  A    between atoms: S1@A_1  and  C36@A_39 
DOCKED: REMARK    2  A    between atoms: S1@A_1  and  C38@A_41 
DOCKED: REMARK    3  A    between atoms: C7@A_7  and  C35@A_38 
DOCKED: REMARK    4  A    between atoms: O14@A_14  and  C15@A_16 
DOCKED: REMARK    5  A    between atoms: C15@A_16  and  C17@A_19 
DOCKED: REMARK    6  A    between atoms: N16@A_17  and  C17@A_19 
DOCKED: REMARK       I    between atoms: N16@A_17  and  C27@A_30 
DOCKED: REMARK    7  A    between atoms: C17@A_19  and  C18@A_20 
DOCKED: REMARK    8  A    between atoms: C18@A_20  and  C19@A_21 
DOCKED: REMARK    9  A    between atoms: N25@A_27  and  C26@A_29 
DOCKED: REMARK       I    between atoms: N25@A_27  and  C32@A_35 
DOCKED: REMARK   10  A    between atoms: C26@A_29  and  C27@A_30 
DOCKED: REMARK   11  A    between atoms: C26@A_29  and  C29@A_32 
DOCKED: REMARK   12  A    between atoms: C32@A_35  and  C34@A_37 
DOCKED: REMARK   13  A    between atoms: C34@A_37  and  C35@A_38 
DOCKED: REMARK   14  A    between atoms: C34@A_37  and  C36@A_39 
DOCKED: USER                              x       y       z     vdW  Elec       q    Type
DOCKED: USER                           _______ _______ _______ _____ _____    ______ ____
DOCKED: ROOT
DOCKED: ATOM      1  N25AHYB A 201       4.366  19.570   2.400 -0.07 +0.11    -0.347 N 
DOCKED: ATOM      2  H25AHYB A 201       4.204  20.576   2.355 -0.21 -0.06    +0.163 HD
DOCKED: ATOM      3  C32AHYB A 201       4.624  19.019   3.617 -0.22 -0.07    +0.223 C 
DOCKED: ATOM      4  O33AHYB A 201       4.864  17.816   3.778 -0.76 +0.11    -0.273 OA
DOCKED: ENDROOT
DOCKED: BRANCH   3   5
DOCKED: ATOM      5  C34AHYB A 201       4.692  20.016   4.793 -0.28 -0.02    +0.096 C 
DOCKED: BRANCH   5   6
DOCKED: ATOM      6  C35AHYB A 201       5.994  19.658   5.554 -0.29 -0.02    +0.054 C 
DOCKED: BRANCH   6   7
DOCKED: ATOM      7  C7 AHYB A 201       6.343  20.778   6.551 -0.25 +0.01    -0.046 A 
DOCKED: ATOM      8  C6 AHYB A 201       6.030  20.766   7.864 -0.29 -0.00    +0.008 A 
DOCKED: ATOM      9  C5 AHYB A 201       6.384  21.891   8.709 -0.29 -0.00    +0.001 A 
DOCKED: ATOM     10  C4 AHYB A 201       7.031  22.967   8.181 -0.25 -0.00    +0.012 A 
DOCKED: ATOM     11  C9 AHYB A 201       7.375  23.011   6.787 -0.23 +0.00    -0.025 A 
DOCKED: ATOM     12  C8 AHYB A 201       7.044  21.950   5.934 -0.22 +0.00    -0.020 A 
DOCKED: ATOM     13  C10AHYB A 201       8.068  24.157   6.264 -0.21 -0.00    +0.012 A 
DOCKED: ATOM     14  C13AHYB A 201       7.376  22.014   4.576 -0.17 -0.00    +0.013 A 
DOCKED: ATOM     15  C12AHYB A 201       8.039  23.133   4.065 -0.16 -0.00    +0.001 A 
DOCKED: ATOM     16  C11AHYB A 201       8.384  24.207   4.932 -0.18 -0.00    +0.001 A 
DOCKED: ENDBRANCH   6   7
DOCKED: ENDBRANCH   5   6
DOCKED: BRANCH   5  17
DOCKED: ATOM     17  C36AHYB A 201       3.442  19.933   5.727 -0.34 -0.01    +0.155 C 
DOCKED: BRANCH  17  18
DOCKED: ATOM     18  S1 AHYB A 201       2.021  20.678   4.943 -0.40 -0.02    +0.152 S 
DOCKED: ATOM     19  O2 AHYB A 201       1.850  21.947   5.594 -0.25 +0.01    -0.227 OA
DOCKED: ATOM     20  O3 AHYB A 201       2.111  20.649   3.520 -0.19 +0.05    -0.227 OA
DOCKED: BRANCH  18  21
DOCKED: ATOM     21  C38AHYB A 201       0.592  19.604   5.385 -0.39 -0.01    +0.053 C 
DOCKED: ATOM     22  C37AHYB A 201       0.184  18.695   4.197 -0.35 -0.01    +0.031 C 
DOCKED: ATOM     23  C39AHYB A 201      -0.586  20.576   5.634 -0.43 -0.00    +0.031 C 
DOCKED: ATOM     24  C40AHYB A 201       0.913  18.789   6.662 -0.53 -0.00    +0.031 C 
DOCKED: ENDBRANCH  18  21
DOCKED: ENDBRANCH  17  18
DOCKED: ENDBRANCH   5  17
DOCKED: ENDBRANCH   3   5
DOCKED: BRANCH   1  25
DOCKED: ATOM     25  C26AHYB A 201       4.304  18.798   1.131 -0.10 -0.06    +0.180 C 
DOCKED: BRANCH  25  26
DOCKED: ATOM     26  C27AHYB A 201       5.767  18.932   0.558 -0.05 -0.05    +0.241 C 
DOCKED: ATOM     27  N16AHYB A 201       6.733  18.730   1.527 -0.01 +0.11    -0.352 N 
DOCKED: ATOM     28  H16AHYB A 201       6.431  18.515   2.477 +0.05 -0.08    +0.163 HD
DOCKED: ATOM     29  O28AHYB A 201       6.052  19.124  -0.613 -0.02 +0.03    -0.271 OA
DOCKED: BRANCH  27  30
DOCKED: ATOM     30  C17AHYB A 201       8.178  18.810   1.252 -0.03 -0.03    +0.112 C 
DOCKED: BRANCH  30  31
DOCKED: ATOM     31  C15AHYB A 201       8.879  17.860   2.263 -0.06 -0.10    +0.189 C 
DOCKED: BRANCH  31  32
DOCKED: ATOM     32  O14AHYB A 201       7.778  17.193   2.981 -0.05 +0.49    -0.399 OA
DOCKED: ATOM     33  H14AHYB A 201       8.202  16.538   3.523 -0.39 -0.49    +0.209 HD
DOCKED: ENDBRANCH  31  32
DOCKED: ENDBRANCH  30  31
DOCKED: BRANCH  30  34
DOCKED: ATOM     34  C18AHYB A 201       8.617  20.281   1.446 -0.02 -0.01    +0.065 C 
DOCKED: BRANCH  34  35
DOCKED: ATOM     35  C19AHYB A 201       7.827  21.398   0.795 -0.04 +0.01    -0.056 A 
DOCKED: ATOM     36  C20AHYB A 201       6.630  21.900   1.318 -0.16 -0.00    +0.007 A 
DOCKED: ATOM     37  C21AHYB A 201       5.939  22.973   0.740 -0.16 -0.00    +0.001 A 
DOCKED: ATOM     38  C22AHYB A 201       6.460  23.564  -0.416 -0.26 -0.00    +0.000 A 
DOCKED: ATOM     39  C23AHYB A 201       7.663  23.100  -0.943 -0.08 -0.00    +0.001 A 
DOCKED: ATOM     40  C24AHYB A 201       8.340  22.029  -0.351 -0.03 -0.00    +0.007 A 
DOCKED: ENDBRANCH  34  35
DOCKED: ENDBRANCH  30  34
DOCKED: ENDBRANCH  27  30
DOCKED: ENDBRANCH  25  26
DOCKED: BRANCH  25  41
DOCKED: ATOM     41  C29AHYB A 201       3.219  19.289   0.141 -0.18 -0.00    +0.009 C 
DOCKED: ATOM     42  C30AHYB A 201       1.820  18.806   0.560 -0.19 -0.00    +0.012 C 
DOCKED: ATOM     43  C31AHYB A 201       3.329  20.831   0.091 -0.28 +0.00    +0.012 C 
DOCKED: ENDBRANCH  25  41
DOCKED: ENDBRANCH   1  25
DOCKED: TORSDOF 14
DOCKED: TER
DOCKED: ENDMDL
________________________________________________________________________________


	BEGINNING GENETIC ALGORITHM DOCKING 7 of 10
Run: 7 Seed: 341815683 132586235 [ Run 7 of 10 GA/GALS ]
Beginning LAMARCKIAN GENETIC ALGORITHM (LGA), with a maximum of 2500000 energy evaluations.

Final-Value: -15.404


	FINAL GENETIC ALGORITHM DOCKED STATE
	_______________________________________________


Detailed state:  trans 4.333 20.462 3.725 quatxyzw -0.014394 0.667510 -0.686991 0.286823 center 5.368 20.063 2.466 ntor 14 -120.5209 22.5135 112.6844 -122.2985 158.5476 107.4408 78.0964 -10.1689 86.4407 29.2470 -9.9885 38.0697 29.4680 90.0320
State:	  4.333  20.462   3.725  -0.015  0.697 -0.717 146.664   -120.52   22.51  112.68 -122.30  158.55  107.44   78.10  -10.17   86.44   29.25   -9.99   38.07   29.47   90.03

DOCKED: MODEL        7
DOCKED: USER    Run = 7
DOCKED: USER    DPF = dock.dpf
DOCKED: USER  
DOCKED: USER    Estimated Free Energy of Binding    =   -6.66 kcal/mol  [=(1)+(2)+(3)-(4)]
DOCKED: USER    Estimated Inhibition Constant, Ki   =   13.04 uM (micromolar)  [Temperature = 298.15 K]
DOCKED: USER    
DOCKED: USER    (1) Final Intermolecular Energy     =  -10.84 kcal/mol
DOCKED: USER        vdW + Hbond + desolv Energy     =  -10.50 kcal/mol
DOCKED: USER        Electrostatic Energy            =   -0.34 kcal/mol
DOCKED: USER    (2) Final Total Internal Energy     =   -4.56 kcal/mol
DOCKED: USER    (3) Torsional Free Energy           =   +4.18 kcal/mol
DOCKED: USER    (4) Unbound System's Energy  [=(2)] =   -4.56 kcal/mol
DOCKED: USER    
DOCKED: USER    
DOCKED: USER    NEWDPF move lig1fmb.pdbqt
DOCKED: USER    NEWDPF about 5.368000 20.063000 2.466000
DOCKED: USER    NEWDPF tran0 4.333111 20.461862 3.725055
DOCKED: USER    NEWDPF quaternion0 -0.014394 0.667510 -0.686991 0.286823
DOCKED: USER    NEWDPF axisangle0 -0.015026 0.696786 -0.717122 146.664326
DOCKED: USER    NEWDPF quat0 -0.015026 0.696786 -0.717122 146.664326
DOCKED: USER    NEWDPF dihe0 -120.52 22.51 112.68 -122.30 158.55 107.44 78.10 -10.17 86.44 29.25 -9.99 38.07 29.47 90.03 
DOCKED: USER  keepresnum = 1 
DOCKED: USER  
DOCKED: REMARK  14 active torsions:
DOCKED: REMARK  status: ('A' for Active; 'I' for Inactive)
DOCKED: REMARK    1  A    between atoms: S1@A_1  and  C36@A_39 
DOCKED: REMARK    2  A    between atoms: S1@A_1  and  C38@A_41 
DOCKED: REMARK    3  A    between atoms: C7@A_7  and  C35@A_38 
DOCKED: REMARK    4  A    between atoms: O14@A_14  and  C15@A_16 
DOCKED: REMARK    5  A    between atoms: C15@A_16  and  C17@A_19 
DOCKED: REMARK    6  A    between atoms: N16@A_17  and  C17@A_19 
DOCKED: REMARK       I    between atoms: N16@A_17  and  C27@A_30 
DOCKED: REMARK    7  A    between atoms: C17@A_19  and  C18@A_20 
DOCKED: REMARK    8  A    between atoms: C18@A_20  and  C19@A_21 
DOCKED: REMARK    9  A    between atoms: N25@A_27  and  C26@A_29 
DOCKED: REMARK       I    between atoms: N25@A_27  and  C32@A_35 
DOCKED: REMARK   10  A    between atoms: C26@A_29  and  C27@A_30 
DOCKED: REMARK   11  A    between atoms: C26@A_29  and  C29@A_32 
DOCKED: REMARK   12  A    between atoms: C32@A_35  and  C34@A_37 
DOCKED: REMARK   13  A    between atoms: C34@A_37  and  C35@A_38 
DOCKED: REMARK   14  A    between atoms: C34@A_37  and  C36@A_39 
DOCKED: USER                              x       y       z     vdW  Elec       q    Type
DOCKED: USER                           _______ _______ _______ _____ _____    ______ ____
DOCKED: ROOT
DOCKED: ATOM      1  N25AHYB A 201       5.357  18.770   3.272 -0.12 +0.15    -0.347 N 
DOCKED: ATOM      2  H25AHYB A 201       4.974  19.209   2.435 +0.05 -0.06    +0.163 HD
DOCKED: ATOM      3  C32AHYB A 201       4.555  18.678   4.369 -0.25 -0.05    +0.223 C 
DOCKED: ATOM      4  O33AHYB A 201       4.931  18.194   5.443 -0.76 +0.02    -0.273 OA
DOCKED: ENDROOT
DOCKED: BRANCH   3   5
DOCKED: ATOM      5  C34AHYB A 201       3.155  19.310   4.218 -0.30 -0.02    +0.096 C 
DOCKED: BRANCH   5   6
DOCKED: ATOM      6  C35AHYB A 201       3.214  20.115   2.894 -0.20 -0.02    +0.054 C 
DOCKED: BRANCH   6   7
DOCKED: ATOM      7  C7 AHYB A 201       1.886  20.861   2.675 -0.20 +0.01    -0.046 A 
DOCKED: ATOM      8  C6 AHYB A 201       1.451  21.896   3.425 -0.25 -0.00    +0.008 A 
DOCKED: ATOM      9  C5 AHYB A 201       0.166  22.510   3.146 -0.32 +0.00    +0.001 A 
DOCKED: ATOM     10  C4 AHYB A 201      -0.610  22.042   2.130 -0.25 +0.00    +0.012 A 
DOCKED: ATOM     11  C9 AHYB A 201      -0.178  20.939   1.316 -0.20 -0.00    -0.025 A 
DOCKED: ATOM     12  C8 AHYB A 201       1.052  20.313   1.557 -0.20 +0.00    -0.020 A 
DOCKED: ATOM     13  C10AHYB A 201      -1.016  20.478   0.245 -0.16 +0.00    +0.012 A 
DOCKED: ATOM     14  C13AHYB A 201       1.454  19.233   0.762 -0.17 -0.00    +0.013 A 
DOCKED: ATOM     15  C12AHYB A 201       0.633  18.776  -0.272 -0.14 -0.00    +0.001 A 
DOCKED: ATOM     16  C11AHYB A 201      -0.612  19.417  -0.522 -0.12 -0.00    +0.001 A 
DOCKED: ENDBRANCH   6   7
DOCKED: ENDBRANCH   5   6
DOCKED: BRANCH   5  17
DOCKED: ATOM     17  C36AHYB A 201       2.772  20.224   5.426 -0.32 -0.02    +0.155 C 
DOCKED: BRANCH  17  18
DOCKED: ATOM     18  S1 AHYB A 201       1.824  19.308   6.630 -0.57 -0.01    +0.152 S 
DOCKED: ATOM     19  O2 AHYB A 201       2.376  17.982   6.619 -0.84 +0.00    -0.227 OA
DOCKED: ATOM     20  O3 AHYB A 201       1.724  19.994   7.876 -0.33 -0.00    -0.227 OA
DOCKED: BRANCH  18  21
DOCKED: ATOM     21  C38AHYB A 201       0.113  19.226   5.954 -0.48 -0.01    +0.053 C 
DOCKED: ATOM     22  C37AHYB A 201      -0.747  18.194   6.726 -0.39 -0.01    +0.031 C 
DOCKED: ATOM     23  C39AHYB A 201       0.270  18.691   4.510 -0.35 -0.01    +0.031 C 
DOCKED: ATOM     24  C40AHYB A 201      -0.526  20.637   5.952 -0.43 -0.00    +0.031 C 
DOCKED: ENDBRANCH  18  21
DOCKED: ENDBRANCH  17  18
DOCKED: ENDBRANCH   5  17
DOCKED: ENDBRANCH   3   5
DOCKED: BRANCH   1  25
DOCKED: ATOM     25  C26AHYB A 201       6.756  18.270   3.218 -0.16 -0.13    +0.180 C 
DOCKED: BRANCH  25  26
DOCKED: ATOM     26  C27AHYB A 201       7.612  19.594   3.276 -0.07 -0.11    +0.241 C 
DOCKED: ATOM     27  N16AHYB A 201       8.489  19.609   4.345 -0.03 +0.25    -0.352 N 
DOCKED: ATOM     28  H16AHYB A 201       8.510  18.801   4.967 -0.32 -0.28    +0.163 HD
DOCKED: ATOM     29  O28AHYB A 201       7.580  20.492   2.450 -0.04 +0.07    -0.271 OA
DOCKED: BRANCH  27  30
DOCKED: ATOM     30  C17AHYB A 201       9.394  20.736   4.629 -0.05 -0.04    +0.112 C 
DOCKED: BRANCH  30  31
DOCKED: ATOM     31  C15AHYB A 201      10.796  20.125   4.908 -0.02 -0.06    +0.189 C 
DOCKED: BRANCH  31  32
DOCKED: ATOM     32  O14AHYB A 201      10.525  18.891   5.668 -0.03 +0.31    -0.399 OA
DOCKED: ATOM     33  H14AHYB A 201       9.980  18.366   5.092 -0.46 -0.30    +0.209 HD
DOCKED: ENDBRANCH  31  32
DOCKED: ENDBRANCH  30  31
DOCKED: BRANCH  30  34
DOCKED: ATOM     34  C18AHYB A 201       8.839  21.491   5.860 -0.07 -0.01    +0.065 C 
DOCKED: BRANCH  34  35
DOCKED: ATOM     35  C19AHYB A 201       7.602  20.979   6.568 -0.14 +0.01    -0.056 A 
DOCKED: ATOM     36  C20AHYB A 201       6.343  21.578   6.449 -0.28 -0.00    +0.007 A 
DOCKED: ATOM     37  C21AHYB A 201       5.194  21.061   7.061 -0.31 +0.00    +0.001 A 
DOCKED: ATOM     38  C22AHYB A 201       5.308  19.899   7.833 -0.29 -0.00    +0.000 A 
DOCKED: ATOM     39  C23AHYB A 201       6.544  19.268   7.947 -0.27 -0.00    +0.001 A 
DOCKED: ATOM     40  C24AHYB A 201       7.679  19.799   7.327 -0.15 -0.00    +0.007 A 
DOCKED: ENDBRANCH  34  35
DOCKED: ENDBRANCH  30  34
DOCKED: ENDBRANCH  27  30
DOCKED: ENDBRANCH  25  26
DOCKED: BRANCH  25  41
DOCKED: ATOM     41  C29AHYB A 201       7.071  17.399   1.978 -0.18 -0.01    +0.009 C 
DOCKED: ATOM     42  C30AHYB A 201       6.602  15.948   2.180 -0.22 -0.01    +0.012 C 
DOCKED: ATOM     43  C31AHYB A 201       6.393  18.085   0.770 -0.10 -0.00    +0.012 C 
DOCKED: ENDBRANCH  25  41
DOCKED: ENDBRANCH   1  25
DOCKED: TORSDOF 14
DOCKED: TER
DOCKED: ENDMDL
________________________________________________________________________________


	BEGINNING GENETIC ALGORITHM DOCKING 8 of 10
Run: 8 Seed: 872002000 2108193781 [ Run 8 of 10 GA/GALS ]
Beginning LAMARCKIAN GENETIC ALGORITHM (LGA), with a maximum of 2500000 energy evaluations.

Final-Value: -14.237


	FINAL GENETIC ALGORITHM DOCKED STATE
	_______________________________________________


Detailed state:  trans 4.619 17.840 4.329 quatxyzw 0.393829 0.141638 0.142823 0.896905 center 5.368 20.063 2.466 ntor 14 -67.2349 -126.0794 -136.1354 -176.4000 -20.2353 12.4571 159.9879 -179.5277 -16.8490 -46.7895 173.9264 -122.7492 -47.8555 -179.9613
State:	  4.619  17.840   4.329   0.891  0.320  0.323 52.492    -67.23 -126.08 -136.14 -176.40  -20.24   12.46  159.99 -179.53  -16.85  -46.79  173.93 -122.75  -47.86 -179.96

DOCKED: MODEL        8
DOCKED: USER    Run = 8
DOCKED: USER    DPF = dock.dpf
DOCKED: USER  
DOCKED: USER    Estimated Free Energy of Binding    =   -5.32 kcal/mol  [=(1)+(2)+(3)-(4)]
DOCKED: USER    Estimated Inhibition Constant, Ki   =  126.86 uM (micromolar)  [Temperature = 298.15 K]
DOCKED: USER    
DOCKED: USER    (1) Final Intermolecular Energy     =   -9.49 kcal/mol
DOCKED: USER        vdW + Hbond + desolv Energy     =   -9.31 kcal/mol
DOCKED: USER        Electrostatic Energy            =   -0.18 kcal/mol
DOCKED: USER    (2) Final Total Internal Energy     =   -4.74 kcal/mol
DOCKED: USER    (3) Torsional Free Energy           =   +4.18 kcal/mol
DOCKED: USER    (4) Unbound System's Energy  [=(2)] =   -4.74 kcal/mol
DOCKED: USER    
DOCKED: USER    
DOCKED: USER    NEWDPF move lig1fmb.pdbqt
DOCKED: USER    NEWDPF about 5.368000 20.063000 2.466000
DOCKED: USER    NEWDPF tran0 4.619265 17.840008 4.329471
DOCKED: USER    NEWDPF quaternion0 0.393829 0.141638 0.142823 0.896905
DOCKED: USER    NEWDPF axisangle0 0.890566 0.320287 0.322967 52.491570
DOCKED: USER    NEWDPF quat0 0.890566 0.320287 0.322967 52.491570
DOCKED: USER    NEWDPF dihe0 -67.23 -126.08 -136.14 -176.40 -20.24 12.46 159.99 -179.53 -16.85 -46.79 173.93 -122.75 -47.86 -179.96 
DOCKED: USER  keepresnum = 1 
DOCKED: USER  
DOCKED: REMARK  14 active torsions:
DOCKED: REMARK  status: ('A' for Active; 'I' for Inactive)
DOCKED: REMARK    1  A    between atoms: S1@A_1  and  C36@A_39 
DOCKED: REMARK    2  A    between atoms: S1@A_1  and  C38@A_41 
DOCKED: REMARK    3  A    between atoms: C7@A_7  and  C35@A_38 
DOCKED: REMARK    4  A    between atoms: O14@A_14  and  C15@A_16 
DOCKED: REMARK    5  A    between atoms: C15@A_16  and  C17@A_19 
DOCKED: REMARK    6  A    between atoms: N16@A_17  and  C17@A_19 
DOCKED: REMARK       I    between atoms: N16@A_17  and  C27@A_30 
DOCKED: REMARK    7  A    between atoms: C17@A_19  and  C18@A_20 
DOCKED: REMARK    8  A    between atoms: C18@A_20  and  C19@A_21 
DOCKED: REMARK    9  A    between atoms: N25@A_27  and  C26@A_29 
DOCKED: REMARK       I    between atoms: N25@A_27  and  C32@A_35 
DOCKED: REMARK   10  A    between atoms: C26@A_29  and  C27@A_30 
DOCKED: REMARK   11  A    between atoms: C26@A_29  and  C29@A_32 
DOCKED: REMARK   12  A    between atoms: C32@A_35  and  C34@A_37 
DOCKED: REMARK   13  A    between atoms: C34@A_37  and  C35@A_38 
DOCKED: REMARK   14  A    between atoms: C34@A_37  and  C36@A_39 
DOCKED: USER                              x       y       z     vdW  Elec       q    Type
DOCKED: USER                           _______ _______ _______ _____ _____    ______ ____
DOCKED: ROOT
DOCKED: ATOM      1  N25AHYB A 201       2.881  18.868   4.531 -0.14 +0.06    -0.347 N 
DOCKED: ATOM      2  H25AHYB A 201       3.414  19.192   3.724 +0.07 -0.04    +0.163 HD
DOCKED: ATOM      3  C32AHYB A 201       3.555  18.647   5.694 -0.31 -0.00    +0.223 C 
DOCKED: ATOM      4  O33AHYB A 201       3.010  18.224   6.720 -0.89 -0.02    -0.273 OA
DOCKED: ENDROOT
DOCKED: BRANCH   3   5
DOCKED: ATOM      5  C34AHYB A 201       5.080  18.871   5.626 -0.32 -0.02    +0.096 C 
DOCKED: BRANCH   5   6
DOCKED: ATOM      6  C35AHYB A 201       5.270  20.407   5.715 -0.33 -0.01    +0.054 C 
DOCKED: BRANCH   6   7
DOCKED: ATOM      7  C7 AHYB A 201       5.830  20.786   7.098 -0.29 +0.00    -0.046 A 
DOCKED: ATOM      8  C6 AHYB A 201       5.525  20.156   8.252 -0.27 -0.00    +0.008 A 
DOCKED: ATOM      9  C5 AHYB A 201       6.092  20.616   9.506 -0.27 -0.00    +0.001 A 
DOCKED: ATOM     10  C4 AHYB A 201       6.933  21.687   9.526 -0.23 -0.00    +0.012 A 
DOCKED: ATOM     11  C9 AHYB A 201       7.275  22.381   8.315 -0.23 +0.00    -0.025 A 
DOCKED: ATOM     12  C8 AHYB A 201       6.743  21.975   7.085 -0.26 +0.00    -0.020 A 
DOCKED: ATOM     13  C10AHYB A 201       8.173  23.500   8.370 -0.20 -0.00    +0.012 A 
DOCKED: ATOM     14  C13AHYB A 201       7.077  22.669   5.915 -0.14 +0.00    +0.013 A 
DOCKED: ATOM     15  C12AHYB A 201       7.941  23.765   5.970 -0.21 -0.00    +0.001 A 
DOCKED: ATOM     16  C11AHYB A 201       8.489  24.172   7.218 -0.18 -0.00    +0.001 A 
DOCKED: ENDBRANCH   6   7
DOCKED: ENDBRANCH   5   6
DOCKED: BRANCH   5  17
DOCKED: ATOM     17  C36AHYB A 201       5.718  18.291   4.323 -0.16 -0.08    +0.155 C 
DOCKED: BRANCH  17  18
DOCKED: ATOM     18  S1 AHYB A 201       5.884  19.565   3.084 -0.21 -0.06    +0.152 S 
DOCKED: ATOM     19  O2 AHYB A 201       4.551  20.047   2.853 -0.15 +0.08    -0.227 OA
DOCKED: ATOM     20  O3 AHYB A 201       6.902  20.510   3.412 -0.10 +0.07    -0.227 OA
DOCKED: BRANCH  18  21
DOCKED: ATOM     21  C38AHYB A 201       6.459  18.704   1.561 -0.11 -0.02    +0.053 C 
DOCKED: ATOM     22  C37AHYB A 201       5.377  18.741   0.452 -0.11 -0.01    +0.031 C 
DOCKED: ATOM     23  C39AHYB A 201       6.633  17.222   1.972 -0.21 -0.02    +0.031 C 
DOCKED: ATOM     24  C40AHYB A 201       7.806  19.305   1.087 -0.04 -0.01    +0.031 C 
DOCKED: ENDBRANCH  18  21
DOCKED: ENDBRANCH  17  18
DOCKED: ENDBRANCH   5  17
DOCKED: ENDBRANCH   3   5
DOCKED: BRANCH   1  25
DOCKED: ATOM     25  C26AHYB A 201       1.418  18.667   4.363 -0.19 -0.04    +0.180 C 
DOCKED: BRANCH  25  26
DOCKED: ATOM     26  C27AHYB A 201       1.159  19.138   2.882 -0.17 -0.07    +0.241 C 
DOCKED: ATOM     27  N16AHYB A 201       1.910  20.249   2.542 -0.07 +0.06    -0.352 N 
DOCKED: ATOM     28  H16AHYB A 201       2.540  20.642   3.242 -0.03 -0.04    +0.163 HD
DOCKED: ATOM     29  O28AHYB A 201       0.438  18.572   2.076 -0.16 +0.13    -0.271 OA
DOCKED: BRANCH  27  30
DOCKED: ATOM     30  C17AHYB A 201       1.845  20.892   1.218 -0.18 +0.00    +0.112 C 
DOCKED: BRANCH  30  31
DOCKED: ATOM     31  C15AHYB A 201       0.340  21.138   0.914 -0.23 +0.02    +0.189 C 
DOCKED: BRANCH  31  32
DOCKED: ATOM     32  O14AHYB A 201       0.330  21.925  -0.332 -0.86 -0.23    -0.399 OA
DOCKED: ATOM     33  H14AHYB A 201      -0.053  21.347  -0.982 +0.05 +0.06    +0.209 HD
DOCKED: ENDBRANCH  31  32
DOCKED: ENDBRANCH  30  31
DOCKED: BRANCH  30  34
DOCKED: ATOM     34  C18AHYB A 201       2.489  19.930   0.192 -0.22 -0.00    +0.065 C 
DOCKED: BRANCH  34  35
DOCKED: ATOM     35  C19AHYB A 201       1.664  18.821  -0.427 -0.13 +0.01    -0.056 A 
DOCKED: ATOM     36  C20AHYB A 201       0.718  19.036  -1.436 -0.13 -0.00    +0.007 A 
DOCKED: ATOM     37  C21AHYB A 201       0.002  17.995  -2.042 -0.07 -0.00    +0.001 A 
DOCKED: ATOM     38  C22AHYB A 201       0.236  16.682  -1.617 -0.12 -0.00    +0.000 A 
DOCKED: ATOM     39  C23AHYB A 201       1.190  16.437  -0.633 -0.20 -0.00    +0.001 A 
DOCKED: ATOM     40  C24AHYB A 201       1.895  17.490  -0.040 -0.16 -0.00    +0.007 A 
DOCKED: ENDBRANCH  34  35
DOCKED: ENDBRANCH  30  34
DOCKED: ENDBRANCH  27  30
DOCKED: ENDBRANCH  25  26
DOCKED: BRANCH  25  41
DOCKED: ATOM     41  C29AHYB A 201       0.551  19.423   5.400 -0.43 -0.00    +0.009 C 
DOCKED: ATOM     42  C30AHYB A 201       1.241  20.713   5.872 -0.41 -0.00    +0.012 C 
DOCKED: ATOM     43  C31AHYB A 201      -0.816  19.686   4.727 -0.30 -0.00    +0.012 C 
DOCKED: ENDBRANCH  25  41
DOCKED: ENDBRANCH   1  25
DOCKED: TORSDOF 14
DOCKED: TER
DOCKED: ENDMDL
________________________________________________________________________________


	BEGINNING GENETIC ALGORITHM DOCKING 9 of 10
Run: 9 Seed: 414073886 1477781753 [ Run 9 of 10 GA/GALS ]
Beginning LAMARCKIAN GENETIC ALGORITHM (LGA), with a maximum of 2500000 energy evaluations.

Final-Value: -15.729


	FINAL GENETIC ALGORITHM DOCKED STATE
	_______________________________________________


Detailed state:  trans 3.454 17.716 2.596 quatxyzw 0.444257 -0.357638 -0.030806 0.820842 center 5.368 20.063 2.466 ntor 14 152.1374 -180.0000 114.1904 -81.1194 -17.4691 50.9375 138.1473 8.4838 17.5523 -34.9419 -57.9561 -81.5668 -22.9687 -93.5297
State:	  3.454  17.716   2.596   0.778 -0.626 -0.054 69.662    152.14 -180.00  114.19  -81.12  -17.47   50.94  138.15    8.48   17.55  -34.94  -57.96  -81.57  -22.97  -93.53

DOCKED: MODEL        9
DOCKED: USER    Run = 9
DOCKED: USER    DPF = dock.dpf
DOCKED: USER  
DOCKED: USER    Estimated Free Energy of Binding    =   -5.26 kcal/mol  [=(1)+(2)+(3)-(4)]
DOCKED: USER    Estimated Inhibition Constant, Ki   =  139.37 uM (micromolar)  [Temperature = 298.15 K]
DOCKED: USER    
DOCKED: USER    (1) Final Intermolecular Energy     =   -9.44 kcal/mol
DOCKED: USER        vdW + Hbond + desolv Energy     =   -9.26 kcal/mol
DOCKED: USER        Electrostatic Energy            =   -0.17 kcal/mol
DOCKED: USER    (2) Final Total Internal Energy     =   -6.29 kcal/mol
DOCKED: USER    (3) Torsional Free Energy           =   +4.18 kcal/mol
DOCKED: USER    (4) Unbound System's Energy  [=(2)] =   -6.29 kcal/mol
DOCKED: USER    
DOCKED: USER    
DOCKED: USER    NEWDPF move lig1fmb.pdbqt
DOCKED: USER    NEWDPF about 5.368000 20.063000 2.466000
DOCKED: USER    NEWDPF tran0 3.453903 17.715669 2.596237
DOCKED: USER    NEWDPF quaternion0 0.444257 -0.357638 -0.030806 0.820842
DOCKED: USER    NEWDPF axisangle0 0.777822 -0.626166 -0.053937 69.661599
DOCKED: USER    NEWDPF quat0 0.777822 -0.626166 -0.053937 69.661599
DOCKED: USER    NEWDPF dihe0 152.14 -180.00 114.19 -81.12 -17.47 50.94 138.15 8.48 17.55 -34.94 -57.96 -81.57 -22.97 -93.53 
DOCKED: USER  keepresnum = 1 
DOCKED: USER  
DOCKED: REMARK  14 active torsions:
DOCKED: REMARK  status: ('A' for Active; 'I' for Inactive)
DOCKED: REMARK    1  A    between atoms: S1@A_1  and  C36@A_39 
DOCKED: REMARK    2  A    between atoms: S1@A_1  and  C38@A_41 
DOCKED: REMARK    3  A    between atoms: C7@A_7  and  C35@A_38 
DOCKED: REMARK    4  A    between atoms: O14@A_14  and  C15@A_16 
DOCKED: REMARK    5  A    between atoms: C15@A_16  and  C17@A_19 
DOCKED: REMARK    6  A    between atoms: N16@A_17  and  C17@A_19 
DOCKED: REMARK       I    between atoms: N16@A_17  and  C27@A_30 
DOCKED: REMARK    7  A    between atoms: C17@A_19  and  C18@A_20 
DOCKED: REMARK    8  A    between atoms: C18@A_20  and  C19@A_21 
DOCKED: REMARK    9  A    between atoms: N25@A_27  and  C26@A_29 
DOCKED: REMARK       I    between atoms: N25@A_27  and  C32@A_35 
DOCKED: REMARK   10  A    between atoms: C26@A_29  and  C27@A_30 
DOCKED: REMARK   11  A    between atoms: C26@A_29  and  C29@A_32 
DOCKED: REMARK   12  A    between atoms: C32@A_35  and  C34@A_37 
DOCKED: REMARK   13  A    between atoms: C34@A_37  and  C35@A_38 
DOCKED: REMARK   14  A    between atoms: C34@A_37  and  C36@A_39 
DOCKED: USER                              x       y       z     vdW  Elec       q    Type
DOCKED: USER                           _______ _______ _______ _____ _____    ______ ____
DOCKED: ROOT
DOCKED: ATOM      1  N25AHYB A 201       2.893  18.959   4.099 -0.14 +0.07    -0.347 N 
DOCKED: ATOM      2  H25AHYB A 201       2.454  19.220   3.216 +0.08 -0.04    +0.163 HD
DOCKED: ATOM      3  C32AHYB A 201       4.216  18.639   4.084 -0.25 -0.06    +0.223 C 
DOCKED: ATOM      4  O33AHYB A 201       4.836  18.278   5.092 -0.84 +0.03    -0.273 OA
DOCKED: ENDROOT
DOCKED: BRANCH   3   5
DOCKED: ATOM      5  C34AHYB A 201       4.886  18.663   2.694 -0.22 -0.04    +0.096 C 
DOCKED: BRANCH   5   6
DOCKED: ATOM      6  C35AHYB A 201       6.410  18.638   2.977 -0.21 -0.03    +0.054 C 
DOCKED: BRANCH   6   7
DOCKED: ATOM      7  C7 AHYB A 201       7.038  17.379   2.355 -0.17 +0.03    -0.046 A 
DOCKED: ATOM      8  C6 AHYB A 201       6.356  16.435   1.671 -0.16 -0.00    +0.008 A 
DOCKED: ATOM      9  C5 AHYB A 201       7.047  15.270   1.149 -0.19 -0.00    +0.001 A 
DOCKED: ATOM     10  C4 AHYB A 201       8.386  15.121   1.349 -0.11 -0.00    +0.012 A 
DOCKED: ATOM     11  C9 AHYB A 201       9.139  16.105   2.076 -0.09 +0.01    -0.025 A 
DOCKED: ATOM     12  C8 AHYB A 201       8.510  17.240   2.604 -0.09 +0.02    -0.020 A 
DOCKED: ATOM     13  C10AHYB A 201      10.552  15.922   2.260 -0.06 -0.00    +0.012 A 
DOCKED: ATOM     14  C13AHYB A 201       9.256  18.184   3.320 -0.04 -0.01    +0.013 A 
DOCKED: ATOM     15  C12AHYB A 201      10.628  18.001   3.509 -0.06 -0.00    +0.001 A 
DOCKED: ATOM     16  C11AHYB A 201      11.269  16.853   2.965 -0.05 -0.00    +0.001 A 
DOCKED: ENDBRANCH   6   7
DOCKED: ENDBRANCH   5   6
DOCKED: BRANCH   5  17
DOCKED: ATOM     17  C36AHYB A 201       4.481  19.914   1.850 -0.16 -0.04    +0.155 C 
DOCKED: BRANCH  17  18
DOCKED: ATOM     18  S1 AHYB A 201       2.830  19.723   1.197 -0.24 -0.03    +0.152 S 
DOCKED: ATOM     19  O2 AHYB A 201       2.572  18.310   1.225 -0.14 +0.10    -0.227 OA
DOCKED: ATOM     20  O3 AHYB A 201       1.895  20.599   1.824 -0.18 +0.02    -0.227 OA
DOCKED: BRANCH  18  21
DOCKED: ATOM     21  C38AHYB A 201       2.929  20.258  -0.562 -0.26 +0.00    +0.053 C 
DOCKED: ATOM     22  C37AHYB A 201       1.571  20.819  -1.056 -0.32 +0.01    +0.031 C 
DOCKED: ATOM     23  C39AHYB A 201       3.201  18.964  -1.367 -0.13 -0.00    +0.031 C 
DOCKED: ATOM     24  C40AHYB A 201       4.083  21.274  -0.746 -0.32 +0.00    +0.031 C 
DOCKED: ENDBRANCH  18  21
DOCKED: ENDBRANCH  17  18
DOCKED: ENDBRANCH   5  17
DOCKED: ENDBRANCH   3   5
DOCKED: BRANCH   1  25
DOCKED: ATOM     25  C26AHYB A 201       2.047  18.952   5.321 -0.32 -0.02    +0.180 C 
DOCKED: BRANCH  25  26
DOCKED: ATOM     26  C27AHYB A 201       0.586  18.814   4.745 -0.21 -0.06    +0.241 C 
DOCKED: ATOM     27  N16AHYB A 201       0.571  18.693   3.367 -0.12 +0.14    -0.352 N 
DOCKED: ATOM     28  H16AHYB A 201       1.462  18.696   2.870 +0.07 -0.06    +0.163 HD
DOCKED: ATOM     29  O28AHYB A 201      -0.434  18.748   5.412 -0.30 +0.06    -0.271 OA
DOCKED: BRANCH  27  30
DOCKED: ATOM     30  C17AHYB A 201      -0.669  18.560   2.583 -0.24 -0.07    +0.112 C 
DOCKED: BRANCH  30  31
DOCKED: ATOM     31  C15AHYB A 201      -0.248  18.483   1.089 -0.15 -0.09    +0.189 C 
DOCKED: BRANCH  31  32
DOCKED: ATOM     32  O14AHYB A 201      -0.739  17.172   0.625 -0.10 +0.42    -0.399 OA
DOCKED: ATOM     33  H14AHYB A 201      -0.747  16.626   1.403 -0.44 -0.52    +0.209 HD
DOCKED: ENDBRANCH  31  32
DOCKED: ENDBRANCH  30  31
DOCKED: BRANCH  30  34
DOCKED: ATOM     34  C18AHYB A 201      -1.546  19.802   2.870 -0.17 -0.01    +0.065 C 
DOCKED: BRANCH  34  35
DOCKED: ATOM     35  C19AHYB A 201      -1.049  21.183   2.496 -0.17 +0.00    -0.056 A 
DOCKED: ATOM     36  C20AHYB A 201      -1.091  21.690   1.193 -0.22 +0.00    +0.007 A 
DOCKED: ATOM     37  C21AHYB A 201      -0.683  22.990   0.868 -0.38 +0.00    +0.001 A 
DOCKED: ATOM     38  C22AHYB A 201      -0.202  23.818   1.889 -0.35 +0.00    +0.000 A 
DOCKED: ATOM     39  C23AHYB A 201      -0.173  23.347   3.200 -0.37 +0.00    +0.001 A 
DOCKED: ATOM     40  C24AHYB A 201      -0.587  22.047   3.504 -0.27 +0.00    +0.007 A 
DOCKED: ENDBRANCH  34  35
DOCKED: ENDBRANCH  30  34
DOCKED: ENDBRANCH  27  30
DOCKED: ENDBRANCH  25  26
DOCKED: BRANCH  25  41
DOCKED: ATOM     41  C29AHYB A 201       2.227  20.196   6.224 -0.45 -0.00    +0.009 C 
DOCKED: ATOM     42  C30AHYB A 201       3.485  20.075   7.100 -0.40 +0.00    +0.012 C 
DOCKED: ATOM     43  C31AHYB A 201       2.267  21.424   5.285 -0.37 -0.00    +0.012 C 
DOCKED: ENDBRANCH  25  41
DOCKED: ENDBRANCH   1  25
DOCKED: TORSDOF 14
DOCKED: TER
DOCKED: ENDMDL
________________________________________________________________________________


	BEGINNING GENETIC ALGORITHM DOCKING 10 of 10
Run: 10 Seed: 1027425344 1370801418 [ Run 10 of 10 GA/GALS ]
Beginning LAMARCKIAN GENETIC ALGORITHM (LGA), with a maximum of 2500000 energy evaluations.

Final-Value: -15.613


	FINAL GENETIC ALGORITHM DOCKED STATE
	_______________________________________________


Detailed state:  trans 5.449 20.333 4.681 quatxyzw 0.311350 -0.623610 0.194270 -0.690239 center 5.368 20.063 2.466 ntor 14 135.5253 113.2875 -165.0764 75.3859 175.8351 15.8561 124.8044 -175.6411 35.1138 -52.2554 161.7664 -112.0745 25.5216 121.3840
State:	  5.449  20.333   4.681   0.430 -0.862  0.268 -92.702    135.53  113.29 -165.08   75.39  175.84   15.86  124.80 -175.64   35.11  -52.26  161.77 -112.07   25.52  121.38

DOCKED: MODEL       10
DOCKED: USER    Run = 10
DOCKED: USER    DPF = dock.dpf
DOCKED: USER  
DOCKED: USER    Estimated Free Energy of Binding    =   -6.18 kcal/mol  [=(1)+(2)+(3)-(4)]
DOCKED: USER    Estimated Inhibition Constant, Ki   =   29.74 uM (micromolar)  [Temperature = 298.15 K]
DOCKED: USER    
DOCKED: USER    (1) Final Intermolecular Energy     =  -10.35 kcal/mol
DOCKED: USER        vdW + Hbond + desolv Energy     =  -10.26 kcal/mol
DOCKED: USER        Electrostatic Energy            =   -0.09 kcal/mol
DOCKED: USER    (2) Final Total Internal Energy     =   -5.26 kcal/mol
DOCKED: USER    (3) Torsional Free Energy           =   +4.18 kcal/mol
DOCKED: USER    (4) Unbound System's Energy  [=(2)] =   -5.26 kcal/mol
DOCKED: USER    
DOCKED: USER    
DOCKED: USER    NEWDPF move lig1fmb.pdbqt
DOCKED: USER    NEWDPF about 5.368000 20.063000 2.466000
DOCKED: USER    NEWDPF tran0 5.448506 20.332937 4.681368
DOCKED: USER    NEWDPF quaternion0 0.311350 -0.623610 0.194270 -0.690239
DOCKED: USER    NEWDPF axisangle0 0.430291 -0.861839 0.268484 -92.701879
DOCKED: USER    NEWDPF quat0 0.430291 -0.861839 0.268484 -92.701879
DOCKED: USER    NEWDPF dihe0 135.53 113.29 -165.08 75.39 175.84 15.86 124.80 -175.64 35.11 -52.26 161.77 -112.07 25.52 121.38 
DOCKED: USER  keepresnum = 1 
DOCKED: USER  
DOCKED: REMARK  14 active torsions:
DOCKED: REMARK  status: ('A' for Active; 'I' for Inactive)
DOCKED: REMARK    1  A    between atoms: S1@A_1  and  C36@A_39 
DOCKED: REMARK    2  A    between atoms: S1@A_1  and  C38@A_41 
DOCKED: REMARK    3  A    between atoms: C7@A_7  and  C35@A_38 
DOCKED: REMARK    4  A    between atoms: O14@A_14  and  C15@A_16 
DOCKED: REMARK    5  A    between atoms: C15@A_16  and  C17@A_19 
DOCKED: REMARK    6  A    between atoms: N16@A_17  and  C17@A_19 
DOCKED: REMARK       I    between atoms: N16@A_17  and  C27@A_30 
DOCKED: REMARK    7  A    between atoms: C17@A_19  and  C18@A_20 
DOCKED: REMARK    8  A    between atoms: C18@A_20  and  C19@A_21 
DOCKED: REMARK    9  A    between atoms: N25@A_27  and  C26@A_29 
DOCKED: REMARK       I    between atoms: N25@A_27  and  C32@A_35 
DOCKED: REMARK   10  A    between atoms: C26@A_29  and  C27@A_30 
DOCKED: REMARK   11  A    between atoms: C26@A_29  and  C29@A_32 
DOCKED: REMARK   12  A    between atoms: C32@A_35  and  C34@A_37 
DOCKED: REMARK   13  A    between atoms: C34@A_37  and  C35@A_38 
DOCKED: REMARK   14  A    between atoms: C34@A_37  and  C36@A_39 
DOCKED: USER                              x       y       z     vdW  Elec       q    Type
DOCKED: USER                           _______ _______ _______ _____ _____    ______ ____
DOCKED: ROOT
DOCKED: ATOM      1  N25AHYB A 201       4.426  19.687   3.052 -0.08 +0.11    -0.347 N 
DOCKED: ATOM      2  H25AHYB A 201       4.092  20.599   3.363 -0.35 -0.07    +0.163 HD
DOCKED: ATOM      3  C32AHYB A 201       4.657  18.735   3.998 -0.25 -0.07    +0.223 C 
DOCKED: ATOM      4  O33AHYB A 201       5.092  17.608   3.731 -0.70 +0.13    -0.273 OA
DOCKED: ENDROOT
DOCKED: BRANCH   3   5
DOCKED: ATOM      5  C34AHYB A 201       4.430  19.185   5.457 -0.37 -0.01    +0.096 C 
DOCKED: BRANCH   5   6
DOCKED: ATOM      6  C35AHYB A 201       3.507  20.427   5.360 -0.37 -0.01    +0.054 C 
DOCKED: BRANCH   6   7
DOCKED: ATOM      7  C7 AHYB A 201       2.060  20.031   5.700 -0.36 +0.00    -0.046 A 
DOCKED: ATOM      8  C6 AHYB A 201       1.701  18.899   6.343 -0.48 -0.00    +0.008 A 
DOCKED: ATOM      9  C5 AHYB A 201       0.300  18.612   6.589 -0.46 -0.00    +0.001 A 
DOCKED: ATOM     10  C4 AHYB A 201      -0.661  19.482   6.169 -0.39 -0.00    +0.012 A 
DOCKED: ATOM     11  C9 AHYB A 201      -0.312  20.693   5.480 -0.36 +0.00    -0.025 A 
DOCKED: ATOM     12  C8 AHYB A 201       1.028  21.004   5.215 -0.34 +0.00    -0.020 A 
DOCKED: ATOM     13  C10AHYB A 201      -1.350  21.593   5.060 -0.35 +0.00    +0.012 A 
DOCKED: ATOM     14  C13AHYB A 201       1.350  22.182   4.531 -0.37 -0.00    +0.013 A 
DOCKED: ATOM     15  C12AHYB A 201       0.340  23.053   4.113 -0.40 -0.00    +0.001 A 
DOCKED: ATOM     16  C11AHYB A 201      -1.020  22.742   4.390 -0.33 +0.00    +0.001 A 
DOCKED: ENDBRANCH   6   7
DOCKED: ENDBRANCH   5   6
DOCKED: BRANCH   5  17
DOCKED: ATOM     17  C36AHYB A 201       5.764  19.520   6.199 -0.28 -0.05    +0.155 C 
DOCKED: BRANCH  17  18
DOCKED: ATOM     18  S1 AHYB A 201       6.037  21.283   6.234 -0.34 -0.01    +0.152 S 
DOCKED: ATOM     19  O2 AHYB A 201       6.000  21.701   4.860 -0.52 +0.04    -0.227 OA
DOCKED: ATOM     20  O3 AHYB A 201       5.188  21.945   7.170 -0.54 -0.04    -0.227 OA
DOCKED: BRANCH  18  21
DOCKED: ATOM     21  C38AHYB A 201       7.755  21.507   6.859 -0.16 -0.01    +0.053 C 
DOCKED: ATOM     22  C37AHYB A 201       8.467  20.143   7.044 -0.12 -0.01    +0.031 C 
DOCKED: ATOM     23  C39AHYB A 201       7.598  22.128   8.269 -0.21 -0.00    +0.031 C 
DOCKED: ATOM     24  C40AHYB A 201       8.542  22.457   5.924 -0.12 -0.00    +0.031 C 
DOCKED: ENDBRANCH  18  21
DOCKED: ENDBRANCH  17  18
DOCKED: ENDBRANCH   5  17
DOCKED: ENDBRANCH   3   5
DOCKED: BRANCH   1  25
DOCKED: ATOM     25  C26AHYB A 201       4.628  19.480   1.594 -0.13 -0.05    +0.180 C 
DOCKED: BRANCH  25  26
DOCKED: ATOM     26  C27AHYB A 201       5.888  20.373   1.277 -0.09 -0.05    +0.241 C 
DOCKED: ATOM     27  N16AHYB A 201       6.002  21.449   2.138 +0.03 +0.10    -0.352 N 
DOCKED: ATOM     28  H16AHYB A 201       5.302  21.561   2.871 -0.34 -0.11    +0.163 HD
DOCKED: ATOM     29  O28AHYB A 201       6.725  20.134   0.422 -0.03 +0.03    -0.271 OA
DOCKED: BRANCH  27  30
DOCKED: ATOM     30  C17AHYB A 201       7.088  22.441   2.048 -0.15 -0.01    +0.112 C 
DOCKED: BRANCH  30  31
DOCKED: ATOM     31  C15AHYB A 201       7.346  22.686   0.535 -0.11 -0.01    +0.189 C 
DOCKED: BRANCH  31  32
DOCKED: ATOM     32  O14AHYB A 201       6.022  23.015  -0.025 -0.17 +0.02    -0.399 OA
DOCKED: ATOM     33  H14AHYB A 201       5.430  22.378   0.358 +0.06 -0.01    +0.209 HD
DOCKED: ENDBRANCH  31  32
DOCKED: ENDBRANCH  30  31
DOCKED: BRANCH  30  34
DOCKED: ATOM     34  C18AHYB A 201       8.331  21.848   2.755 -0.08 -0.01    +0.065 C 
DOCKED: BRANCH  34  35
DOCKED: ATOM     35  C19AHYB A 201       8.792  20.445   2.424 -0.02 +0.01    -0.056 A 
DOCKED: ATOM     36  C20AHYB A 201       8.311  19.302   3.073 -0.08 -0.00    +0.007 A 
DOCKED: ATOM     37  C21AHYB A 201       8.702  18.004   2.718 -0.08 -0.00    +0.001 A 
DOCKED: ATOM     38  C22AHYB A 201       9.620  17.840   1.675 -0.04 -0.00    +0.000 A 
DOCKED: ATOM     39  C23AHYB A 201      10.096  18.959   0.996 -0.00 -0.00    +0.001 A 
DOCKED: ATOM     40  C24AHYB A 201       9.693  20.246   1.364 -0.01 -0.00    +0.007 A 
DOCKED: ENDBRANCH  34  35
DOCKED: ENDBRANCH  30  34
DOCKED: ENDBRANCH  27  30
DOCKED: ENDBRANCH  25  26
DOCKED: BRANCH  25  41
DOCKED: ATOM     41  C29AHYB A 201       3.397  19.839   0.726 -0.22 -0.00    +0.009 C 
DOCKED: ATOM     42  C30AHYB A 201       2.232  20.351   1.590 -0.26 -0.00    +0.012 C 
DOCKED: ATOM     43  C31AHYB A 201       3.875  20.880  -0.312 -0.29 +0.00    +0.012 C 
DOCKED: ENDBRANCH  25  41
DOCKED: ENDBRANCH   1  25
DOCKED: TORSDOF 14
DOCKED: TER
DOCKED: ENDMDL
________________________________________________________________________________

DPF> analysis                             # perform a ranked cluster analysis


		CLUSTER ANALYSIS OF CONFORMATIONS
		_________________________________

Number of conformations = 10

RMSD cluster analysis will be performed using the ligand atoms only (43 / 43 total atoms).

Outputting structurally similar clusters, ranked in order of increasing energy.


________________________________________________________________________________

Number of distinct conformational clusters found = 8,  out of 10 runs,
Using an rmsd-tolerance of 2.0 A


	CLUSTERING HISTOGRAM
	____________________

________________________________________________________________________________
     |           |     |           |     |                                    
Clus | Lowest    | Run | Mean      | Num | Histogram                          
-ter | Binding   |     | Binding   | in  |                                    
Rank | Energy    |     | Energy    | Clus|    5    10   15   20   25   30   35
_____|___________|_____|___________|_____|____:____|____:____|____:____|____:___
   1 |     -6.66 |   7 |     -6.66 |   1 |#
   2 |     -6.38 |   1 |     -6.38 |   1 |#
   3 |     -6.18 |  10 |     -6.18 |   1 |#
   4 |     -5.61 |   2 |     -5.44 |   2 |##
   5 |     -5.32 |   8 |     -5.32 |   1 |#
   6 |     -5.26 |   9 |     -5.26 |   1 |#
   7 |     -5.01 |   6 |     -4.61 |   2 |##
   8 |     -4.79 |   3 |     -4.79 |   1 |#
_____|___________|_____|___________|_____|______________________________________


Number of multi-member conformational clusters found = 2, out of 10 runs.

	RMSD TABLE
	__________

_____________________________________________________________________
     |      |      |           |         |                 |
Rank | Sub- | Run  | Binding   | Cluster | Reference       | Grep
     | Rank |      | Energy    | RMSD    | RMSD            | Pattern
_____|______|______|___________|_________|_________________|___________
   1      1      7       -6.66      0.00      3.92           RANKING
   2      1      1       -6.38      0.00      3.38           RANKING
   3      1     10       -6.18      0.00      4.11           RANKING
   4      1      2       -5.61      0.00      3.55           RANKING
   4      2      5       -5.27      1.94      3.86           RANKING
   5      1      8       -5.32      0.00      3.66           RANKING
   6      1      9       -5.26      0.00      3.29           RANKING
   7      1      6       -5.01      0.00      3.10           RANKING
   7      2      4       -4.21      1.93      3.61           RANKING
   8      1      3       -4.79      0.00      3.00           RANKING
_______________________________________________________________________



	INFORMATION ENTROPY ANALYSIS FOR THIS CLUSTERING
	________________________________________________


Information entropy for this clustering = 0.88  (rmstol = 2.00 Angstrom)

_______________________________________________________________________


	STATISTICAL MECHANICAL ANALYSIS
	_______________________________


Partition function, Q =    10.09            at Temperature, T = 298.15 K
Free energy,        A ~ -1369.71 kcal/mol   at Temperature, T = 298.15 K
Internal energy,    U =    -5.47 kcal/mol   at Temperature, T = 298.15 K
Entropy,            S =     4.58 kcal/mol/K at Temperature, T = 298.15 K

_______________________________________________________________________


	LOWEST ENERGY DOCKED CONFORMATION from EACH CLUSTER
	___________________________________________________



Keeping original residue number (specified in the input PDBQ file) for outputting.

MODEL        7
USER    Run = 7
USER    Cluster Rank = 1
USER    Number of conformations in this cluster = 1
USER  
USER    RMSD from reference structure       = 3.923 A
USER  
USER    Estimated Free Energy of Binding    =   -6.66 kcal/mol  [=(1)+(2)+(3)-(4)]
USER    Estimated Inhibition Constant, Ki   =   13.04 uM (micromolar)  [Temperature = 298.15 K]
USER    
USER    (1) Final Intermolecular Energy     =  -10.84 kcal/mol
USER        vdW + Hbond + desolv Energy     =  -10.50 kcal/mol
USER        Electrostatic Energy            =   -0.34 kcal/mol
USER    (2) Final Total Internal Energy     =   -4.56 kcal/mol
USER    (3) Torsional Free Energy           =   +4.18 kcal/mol
USER    (4) Unbound System's Energy  [=(2)] =   -4.56 kcal/mol
USER    
USER    
USER  
USER    DPF = dock.dpf
USER    NEWDPF move	lig1fmb.pdbqt
USER    NEWDPF about	5.368000 20.063000 2.466000
USER    NEWDPF tran0	4.333111 20.461862 3.725055
USER    NEWDPF axisangle0	-0.015026 0.696786 -0.717122 146.664326
USER    NEWDPF quaternion0	-0.014394 0.667510 -0.686991 0.286823
USER    NEWDPF dihe0	-120.52 22.51 112.68 -122.30 158.55 107.44 78.10 -10.17 86.44 29.25 -9.99 38.07 29.47 90.03 
USER  
USER                              x       y       z    vdW   Elec        q     RMS 
ATOM      1  N25AHYB A 201       5.357  18.770   3.272 -0.12 +0.15    -0.347     3.923
ATOM      2  H25AHYB A 201       4.974  19.209   2.435 +0.05 -0.06    +0.163     3.923
ATOM      3  C32AHYB A 201       4.555  18.678   4.369 -0.25 -0.05    +0.223     3.923
ATOM      4  O33AHYB A 201       4.931  18.194   5.443 -0.76 +0.02    -0.273     3.923
ATOM      5  C34AHYB A 201       3.155  19.310   4.218 -0.30 -0.02    +0.096     3.923
ATOM      6  C35AHYB A 201       3.214  20.115   2.894 -0.20 -0.02    +0.054     3.923
ATOM      7  C7 AHYB A 201       1.886  20.861   2.675 -0.20 +0.01    -0.046     3.923
ATOM      8  C6 AHYB A 201       1.451  21.896   3.425 -0.25 -0.00    +0.008     3.923
ATOM      9  C5 AHYB A 201       0.166  22.510   3.146 -0.32 +0.00    +0.001     3.923
ATOM     10  C4 AHYB A 201      -0.610  22.042   2.130 -0.25 +0.00    +0.012     3.923
ATOM     11  C9 AHYB A 201      -0.178  20.939   1.316 -0.20 -0.00    -0.025     3.923
ATOM     12  C8 AHYB A 201       1.052  20.313   1.557 -0.20 +0.00    -0.020     3.923
ATOM     13  C10AHYB A 201      -1.016  20.478   0.245 -0.16 +0.00    +0.012     3.923
ATOM     14  C13AHYB A 201       1.454  19.233   0.762 -0.17 -0.00    +0.013     3.923
ATOM     15  C12AHYB A 201       0.633  18.776  -0.272 -0.14 -0.00    +0.001     3.923
ATOM     16  C11AHYB A 201      -0.612  19.417  -0.522 -0.12 -0.00    +0.001     3.923
ATOM     17  C36AHYB A 201       2.772  20.224   5.426 -0.32 -0.02    +0.155     3.923
ATOM     18  S1 AHYB A 201       1.824  19.308   6.630 -0.57 -0.01    +0.152     3.923
ATOM     19  O2 AHYB A 201       2.376  17.982   6.619 -0.84 +0.00    -0.227     3.923
ATOM     20  O3 AHYB A 201       1.724  19.994   7.876 -0.33 -0.00    -0.227     3.923
ATOM     21  C38AHYB A 201       0.113  19.226   5.954 -0.48 -0.01    +0.053     3.923
ATOM     22  C37AHYB A 201      -0.747  18.194   6.726 -0.39 -0.01    +0.031     3.923
ATOM     23  C39AHYB A 201       0.270  18.691   4.510 -0.35 -0.01    +0.031     3.923
ATOM     24  C40AHYB A 201      -0.526  20.637   5.952 -0.43 -0.00    +0.031     3.923
ATOM     25  C26AHYB A 201       6.756  18.270   3.218 -0.16 -0.13    +0.180     3.923
ATOM     26  C27AHYB A 201       7.612  19.594   3.276 -0.07 -0.11    +0.241     3.923
ATOM     27  N16AHYB A 201       8.489  19.609   4.345 -0.03 +0.25    -0.352     3.923
ATOM     28  H16AHYB A 201       8.510  18.801   4.967 -0.32 -0.28    +0.163     3.923
ATOM     29  O28AHYB A 201       7.580  20.492   2.450 -0.04 +0.07    -0.271     3.923
ATOM     30  C17AHYB A 201       9.394  20.736   4.629 -0.05 -0.04    +0.112     3.923
ATOM     31  C15AHYB A 201      10.796  20.125   4.908 -0.02 -0.06    +0.189     3.923
ATOM     32  O14AHYB A 201      10.525  18.891   5.668 -0.03 +0.31    -0.399     3.923
ATOM     33  H14AHYB A 201       9.980  18.366   5.092 -0.46 -0.30    +0.209     3.923
ATOM     34  C18AHYB A 201       8.839  21.491   5.860 -0.07 -0.01    +0.065     3.923
ATOM     35  C19AHYB A 201       7.602  20.979   6.568 -0.14 +0.01    -0.056     3.923
ATOM     36  C20AHYB A 201       6.343  21.578   6.449 -0.28 -0.00    +0.007     3.923
ATOM     37  C21AHYB A 201       5.194  21.061   7.061 -0.31 +0.00    +0.001     3.923
ATOM     38  C22AHYB A 201       5.308  19.899   7.833 -0.29 -0.00    +0.000     3.923
ATOM     39  C23AHYB A 201       6.544  19.268   7.947 -0.27 -0.00    +0.001     3.923
ATOM     40  C24AHYB A 201       7.679  19.799   7.327 -0.15 -0.00    +0.007     3.923
ATOM     41  C29AHYB A 201       7.071  17.399   1.978 -0.18 -0.01    +0.009     3.923
ATOM     42  C30AHYB A 201       6.602  15.948   2.180 -0.22 -0.01    +0.012     3.923
ATOM     43  C31AHYB A 201       6.393  18.085   0.770 -0.10 -0.00    +0.012     3.923
TER
ENDMDL
MODEL        1
USER    Run = 1
USER    Cluster Rank = 2
USER    Number of conformations in this cluster = 1
USER  
USER    RMSD from reference structure       = 3.380 A
USER  
USER    Estimated Free Energy of Binding    =   -6.38 kcal/mol  [=(1)+(2)+(3)-(4)]
USER    Estimated Inhibition Constant, Ki   =   21.12 uM (micromolar)  [Temperature = 298.15 K]
USER    
USER    (1) Final Intermolecular Energy     =  -10.55 kcal/mol
USER        vdW + Hbond + desolv Energy     =  -10.34 kcal/mol
USER        Electrostatic Energy            =   -0.21 kcal/mol
USER    (2) Final Total Internal Energy     =   -6.48 kcal/mol
USER    (3) Torsional Free Energy           =   +4.18 kcal/mol
USER    (4) Unbound System's Energy  [=(2)] =   -6.48 kcal/mol
USER    
USER    
USER  
USER    DPF = dock.dpf
USER    NEWDPF move	lig1fmb.pdbqt
USER    NEWDPF about	5.368000 20.063000 2.466000
USER    NEWDPF tran0	3.178426 18.240566 2.342814
USER    NEWDPF axisangle0	-0.147550 0.789635 0.595572 154.130933
USER    NEWDPF quaternion0	-0.143806 0.769599 0.580460 0.223838
USER    NEWDPF dihe0	-111.73 15.28 -50.78 -47.53 20.59 -81.61 -1.99 165.36 34.41 -84.30 -35.26 -132.79 -23.63 -176.26 
USER  
USER                              x       y       z    vdW   Elec        q     RMS 
ATOM      1  N25AHYB A 201       4.024  19.964   1.686 -0.07 +0.08    -0.347     3.380
ATOM      2  H25AHYB A 201       4.117  19.866   2.697 +0.02 -0.05    +0.163     3.380
ATOM      3  C32AHYB A 201       2.820  19.666   1.123 -0.14 -0.04    +0.223     3.380
ATOM      4  O33AHYB A 201       2.611  19.721  -0.095 -0.10 +0.02    -0.273     3.380
ATOM      5  C34AHYB A 201       1.742  19.155   2.103 -0.22 -0.03    +0.096     3.380
ATOM      6  C35AHYB A 201       1.125  20.432   2.728 -0.23 -0.01    +0.054     3.380
ATOM      7  C7 AHYB A 201       0.305  21.190   1.669 -0.23 -0.00    -0.046     3.380
ATOM      8  C6 AHYB A 201      -0.118  20.664   0.500 -0.22 +0.00    +0.008     3.380
ATOM      9  C5 AHYB A 201      -0.864  21.479  -0.440 -0.30 +0.00    +0.001     3.380
ATOM     10  C4 AHYB A 201      -1.138  22.781  -0.150 -0.38 +0.00    +0.012     3.380
ATOM     11  C9 AHYB A 201      -0.699  23.372   1.084 -0.39 -0.01    -0.025     3.380
ATOM     12  C8 AHYB A 201       0.031  22.622   2.015 -0.27 -0.00    -0.020     3.380
ATOM     13  C10AHYB A 201      -1.015  24.745   1.363 -0.45 +0.00    +0.012     3.380
ATOM     14  C13AHYB A 201       0.461  23.216   3.208 -0.33 +0.00    +0.013     3.380
ATOM     15  C12AHYB A 201       0.164  24.555   3.475 -0.52 -0.00    +0.001     3.380
ATOM     16  C11AHYB A 201      -0.586  25.314   2.533 -0.50 -0.00    +0.001     3.380
ATOM     17  C36AHYB A 201       2.324  18.205   3.198 -0.08 -0.06    +0.155     3.380
ATOM     18  S1 AHYB A 201       3.075  19.150   4.514 -0.39 -0.03    +0.152     3.380
ATOM     19  O2 AHYB A 201       4.076  18.287   5.077 -0.78 +0.00    -0.227     3.380
ATOM     20  O3 AHYB A 201       3.461  20.456   4.091 -0.16 +0.07    -0.227     3.380
ATOM     21  C38AHYB A 201       1.749  19.392   5.769 -0.43 -0.00    +0.053     3.380
ATOM     22  C37AHYB A 201       1.430  20.896   5.966 -0.36 -0.00    +0.031     3.380
ATOM     23  C39AHYB A 201       2.350  18.880   7.101 -0.51 -0.00    +0.031     3.380
ATOM     24  C40AHYB A 201       0.493  18.573   5.381 -0.38 -0.01    +0.031     3.380
ATOM     25  C26AHYB A 201       5.211  20.425   0.919 -0.13 -0.03    +0.180     3.380
ATOM     26  C27AHYB A 201       6.413  20.090   1.883 -0.07 -0.06    +0.241     3.380
ATOM     27  N16AHYB A 201       6.194  20.537   3.174 -0.05 +0.12    -0.352     3.380
ATOM     28  H16AHYB A 201       5.317  21.014   3.381 -0.38 -0.08    +0.163     3.380
ATOM     29  O28AHYB A 201       7.406  19.450   1.578 -0.02 +0.07    -0.271     3.380
ATOM     30  C17AHYB A 201       7.169  20.358   4.264 -0.15 -0.04    +0.112     3.380
ATOM     31  C15AHYB A 201       6.376  20.471   5.596 -0.21 -0.05    +0.189     3.380
ATOM     32  O14AHYB A 201       5.505  21.647   5.419 -0.66 +0.01    -0.399     3.380
ATOM     33  H14AHYB A 201       4.876  21.387   4.756 -0.46 -0.07    +0.209     3.380
ATOM     34  C18AHYB A 201       8.236  21.471   4.134 -0.10 -0.01    +0.065     3.380
ATOM     35  C19AHYB A 201       9.327  21.354   3.090 -0.02 +0.01    -0.056     3.380
ATOM     36  C20AHYB A 201       9.479  22.256   2.030 -0.02 -0.00    +0.007     3.380
ATOM     37  C21AHYB A 201      10.526  22.172   1.104 -0.00 -0.00    +0.001     3.380
ATOM     38  C22AHYB A 201      11.459  21.137   1.236 +0.00 -0.00    +0.000     3.380
ATOM     39  C23AHYB A 201      11.346  20.240   2.296 -0.00 -0.00    +0.001     3.380
ATOM     40  C24AHYB A 201      10.294  20.342   3.211 -0.02 -0.00    +0.007     3.380
ATOM     41  C29AHYB A 201       5.162  21.918   0.510 -0.17 -0.00    +0.009     3.380
ATOM     42  C30AHYB A 201       6.272  22.725   1.202 -0.14 -0.00    +0.012     3.380
ATOM     43  C31AHYB A 201       5.265  21.958  -1.033 -0.30 -0.00    +0.012     3.380
TER
ENDMDL
MODEL       10
USER    Run = 10
USER    Cluster Rank = 3
USER    Number of conformations in this cluster = 1
USER  
USER    RMSD from reference structure       = 4.115 A
USER  
USER    Estimated Free Energy of Binding    =   -6.18 kcal/mol  [=(1)+(2)+(3)-(4)]
USER    Estimated Inhibition Constant, Ki   =   29.74 uM (micromolar)  [Temperature = 298.15 K]
USER    
USER    (1) Final Intermolecular Energy     =  -10.35 kcal/mol
USER        vdW + Hbond + desolv Energy     =  -10.26 kcal/mol
USER        Electrostatic Energy            =   -0.09 kcal/mol
USER    (2) Final Total Internal Energy     =   -5.26 kcal/mol
USER    (3) Torsional Free Energy           =   +4.18 kcal/mol
USER    (4) Unbound System's Energy  [=(2)] =   -5.26 kcal/mol
USER    
USER    
USER  
USER    DPF = dock.dpf
USER    NEWDPF move	lig1fmb.pdbqt
USER    NEWDPF about	5.368000 20.063000 2.466000
USER    NEWDPF tran0	5.448506 20.332937 4.681368
USER    NEWDPF axisangle0	0.430291 -0.861839 0.268484 -92.701879
USER    NEWDPF quaternion0	0.311350 -0.623610 0.194270 -0.690239
USER    NEWDPF dihe0	135.53 113.29 -165.08 75.39 175.84 15.86 124.80 -175.64 35.11 -52.26 161.77 -112.07 25.52 121.38 
USER  
USER                              x       y       z    vdW   Elec        q     RMS 
ATOM      1  N25AHYB A 201       4.426  19.687   3.052 -0.08 +0.11    -0.347     4.115
ATOM      2  H25AHYB A 201       4.092  20.599   3.363 -0.35 -0.07    +0.163     4.115
ATOM      3  C32AHYB A 201       4.657  18.735   3.998 -0.25 -0.07    +0.223     4.115
ATOM      4  O33AHYB A 201       5.092  17.608   3.731 -0.70 +0.13    -0.273     4.115
ATOM      5  C34AHYB A 201       4.430  19.185   5.457 -0.37 -0.01    +0.096     4.115
ATOM      6  C35AHYB A 201       3.507  20.427   5.360 -0.37 -0.01    +0.054     4.115
ATOM      7  C7 AHYB A 201       2.060  20.031   5.700 -0.36 +0.00    -0.046     4.115
ATOM      8  C6 AHYB A 201       1.701  18.899   6.343 -0.48 -0.00    +0.008     4.115
ATOM      9  C5 AHYB A 201       0.300  18.612   6.589 -0.46 -0.00    +0.001     4.115
ATOM     10  C4 AHYB A 201      -0.661  19.482   6.169 -0.39 -0.00    +0.012     4.115
ATOM     11  C9 AHYB A 201      -0.312  20.693   5.480 -0.36 +0.00    -0.025     4.115
ATOM     12  C8 AHYB A 201       1.028  21.004   5.215 -0.34 +0.00    -0.020     4.115
ATOM     13  C10AHYB A 201      -1.350  21.593   5.060 -0.35 +0.00    +0.012     4.115
ATOM     14  C13AHYB A 201       1.350  22.182   4.531 -0.37 -0.00    +0.013     4.115
ATOM     15  C12AHYB A 201       0.340  23.053   4.113 -0.40 -0.00    +0.001     4.115
ATOM     16  C11AHYB A 201      -1.020  22.742   4.390 -0.33 +0.00    +0.001     4.115
ATOM     17  C36AHYB A 201       5.764  19.520   6.199 -0.28 -0.05    +0.155     4.115
ATOM     18  S1 AHYB A 201       6.037  21.283   6.234 -0.34 -0.01    +0.152     4.115
ATOM     19  O2 AHYB A 201       6.000  21.701   4.860 -0.52 +0.04    -0.227     4.115
ATOM     20  O3 AHYB A 201       5.188  21.945   7.170 -0.54 -0.04    -0.227     4.115
ATOM     21  C38AHYB A 201       7.755  21.507   6.859 -0.16 -0.01    +0.053     4.115
ATOM     22  C37AHYB A 201       8.467  20.143   7.044 -0.12 -0.01    +0.031     4.115
ATOM     23  C39AHYB A 201       7.598  22.128   8.269 -0.21 -0.00    +0.031     4.115
ATOM     24  C40AHYB A 201       8.542  22.457   5.924 -0.12 -0.00    +0.031     4.115
ATOM     25  C26AHYB A 201       4.628  19.480   1.594 -0.13 -0.05    +0.180     4.115
ATOM     26  C27AHYB A 201       5.888  20.373   1.277 -0.09 -0.05    +0.241     4.115
ATOM     27  N16AHYB A 201       6.002  21.449   2.138 +0.03 +0.10    -0.352     4.115
ATOM     28  H16AHYB A 201       5.302  21.561   2.871 -0.34 -0.11    +0.163     4.115
ATOM     29  O28AHYB A 201       6.725  20.134   0.422 -0.03 +0.03    -0.271     4.115
ATOM     30  C17AHYB A 201       7.088  22.441   2.048 -0.15 -0.01    +0.112     4.115
ATOM     31  C15AHYB A 201       7.346  22.686   0.535 -0.11 -0.01    +0.189     4.115
ATOM     32  O14AHYB A 201       6.022  23.015  -0.025 -0.17 +0.02    -0.399     4.115
ATOM     33  H14AHYB A 201       5.430  22.378   0.358 +0.06 -0.01    +0.209     4.115
ATOM     34  C18AHYB A 201       8.331  21.848   2.755 -0.08 -0.01    +0.065     4.115
ATOM     35  C19AHYB A 201       8.792  20.445   2.424 -0.02 +0.01    -0.056     4.115
ATOM     36  C20AHYB A 201       8.311  19.302   3.073 -0.08 -0.00    +0.007     4.115
ATOM     37  C21AHYB A 201       8.702  18.004   2.718 -0.08 -0.00    +0.001     4.115
ATOM     38  C22AHYB A 201       9.620  17.840   1.675 -0.04 -0.00    +0.000     4.115
ATOM     39  C23AHYB A 201      10.096  18.959   0.996 -0.00 -0.00    +0.001     4.115
ATOM     40  C24AHYB A 201       9.693  20.246   1.364 -0.01 -0.00    +0.007     4.115
ATOM     41  C29AHYB A 201       3.397  19.839   0.726 -0.22 -0.00    +0.009     4.115
ATOM     42  C30AHYB A 201       2.232  20.351   1.590 -0.26 -0.00    +0.012     4.115
ATOM     43  C31AHYB A 201       3.875  20.880  -0.312 -0.29 +0.00    +0.012     4.115
TER
ENDMDL
MODEL        2
USER    Run = 2
USER    Cluster Rank = 4
USER    Number of conformations in this cluster = 2
USER  
USER    RMSD from reference structure       = 3.554 A
USER  
USER    Estimated Free Energy of Binding    =   -5.61 kcal/mol  [=(1)+(2)+(3)-(4)]
USER    Estimated Inhibition Constant, Ki   =   77.77 uM (micromolar)  [Temperature = 298.15 K]
USER    
USER    (1) Final Intermolecular Energy     =   -9.78 kcal/mol
USER        vdW + Hbond + desolv Energy     =   -9.69 kcal/mol
USER        Electrostatic Energy            =   -0.10 kcal/mol
USER    (2) Final Total Internal Energy     =   -4.11 kcal/mol
USER    (3) Torsional Free Energy           =   +4.18 kcal/mol
USER    (4) Unbound System's Energy  [=(2)] =   -4.11 kcal/mol
USER    
USER    
USER  
USER    DPF = dock.dpf
USER    NEWDPF move	lig1fmb.pdbqt
USER    NEWDPF about	5.368000 20.063000 2.466000
USER    NEWDPF tran0	5.412844 20.226288 2.899477
USER    NEWDPF axisangle0	0.748366 0.382908 0.541599 -2.946148
USER    NEWDPF quaternion0	0.019238 0.009843 0.013923 -0.999670
USER    NEWDPF dihe0	-25.71 -178.83 105.17 -173.65 -74.56 -70.92 -4.64 -24.99 -29.02 -70.16 177.49 -131.29 13.32 155.79 
USER  
USER                              x       y       z    vdW   Elec        q     RMS 
ATOM      1  N25AHYB A 201       3.768  20.030   4.071 -0.09 +0.10    -0.347     3.554
ATOM      2  H25AHYB A 201       3.882  20.990   3.747 -0.47 -0.10    +0.163     3.554
ATOM      3  C32AHYB A 201       4.873  19.372   4.519 -0.23 -0.06    +0.223     3.554
ATOM      4  O33AHYB A 201       4.850  18.196   4.903 -0.87 +0.03    -0.273     3.554
ATOM      5  C34AHYB A 201       6.194  20.163   4.430 -0.21 -0.03    +0.096     3.554
ATOM      6  C35AHYB A 201       5.928  21.485   5.195 -0.16 -0.01    +0.054     3.554
ATOM      7  C7 AHYB A 201       6.143  21.268   6.704 -0.27 +0.00    -0.046     3.554
ATOM      8  C6 AHYB A 201       5.648  20.231   7.411 -0.32 -0.00    +0.008     3.554
ATOM      9  C5 AHYB A 201       5.890  20.140   8.840 -0.23 -0.00    +0.001     3.554
ATOM     10  C4 AHYB A 201       6.615  21.103   9.474 -0.24 -0.00    +0.012     3.554
ATOM     11  C9 AHYB A 201       7.152  22.221   8.750 -0.23 +0.00    -0.025     3.554
ATOM     12  C8 AHYB A 201       6.934  22.352   7.372 -0.26 +0.00    -0.020     3.554
ATOM     13  C10AHYB A 201       7.921  23.213   9.448 -0.18 -0.00    +0.012     3.554
ATOM     14  C13AHYB A 201       7.455  23.454   6.683 -0.24 -0.00    +0.013     3.554
ATOM     15  C12AHYB A 201       8.194  24.425   7.364 -0.23 -0.00    +0.001     3.554
ATOM     16  C11AHYB A 201       8.422  24.288   8.761 -0.21 -0.00    +0.001     3.554
ATOM     17  C36AHYB A 201       6.636  20.435   2.956 -0.11 -0.05    +0.155     3.554
ATOM     18  S1 AHYB A 201       8.074  19.462   2.542 -0.08 -0.06    +0.152     3.554
ATOM     19  O2 AHYB A 201       8.878  20.309   1.705 -0.01 +0.04    -0.227     3.554
ATOM     20  O3 AHYB A 201       8.677  18.870   3.691 -0.09 +0.19    -0.227     3.554
ATOM     21  C38AHYB A 201       7.449  18.064   1.518 -0.09 -0.02    +0.053     3.554
ATOM     22  C37AHYB A 201       8.014  18.127   0.076 -0.03 -0.00    +0.031     3.554
ATOM     23  C39AHYB A 201       5.921  18.288   1.413 -0.13 -0.01    +0.031     3.554
ATOM     24  C40AHYB A 201       7.761  16.716   2.212 -0.14 -0.03    +0.031     3.554
ATOM     25  C26AHYB A 201       2.406  19.436   4.024 -0.23 -0.04    +0.180     3.554
ATOM     26  C27AHYB A 201       2.017  19.552   2.501 -0.16 -0.06    +0.241     3.554
ATOM     27  N16AHYB A 201       2.279  20.808   1.984 -0.10 +0.04    -0.352     3.554
ATOM     28  H16AHYB A 201       2.687  21.512   2.599 -0.44 -0.05    +0.163     3.554
ATOM     29  O28AHYB A 201       1.595  18.641   1.808 -0.16 +0.11    -0.271     3.554
ATOM     30  C17AHYB A 201       1.997  21.179   0.586 -0.03 +0.02    +0.112     3.554
ATOM     31  C15AHYB A 201       0.498  20.854   0.331 -0.23 +0.02    +0.189     3.554
ATOM     32  O14AHYB A 201      -0.108  22.143  -0.051 -0.84 -0.20    -0.399     3.554
ATOM     33  H14AHYB A 201      -0.862  21.910  -0.580 +0.06 +0.06    +0.209     3.554
ATOM     34  C18AHYB A 201       2.930  20.343  -0.323 -0.26 +0.00    +0.065     3.554
ATOM     35  C19AHYB A 201       4.370  20.767  -0.523 -0.21 +0.00    -0.056     3.554
ATOM     36  C20AHYB A 201       5.060  21.595   0.370 -0.20 -0.00    +0.007     3.554
ATOM     37  C21AHYB A 201       6.409  21.934   0.206 -0.17 -0.00    +0.001     3.554
ATOM     38  C22AHYB A 201       7.098  21.430  -0.903 -0.06 -0.00    +0.000     3.554
ATOM     39  C23AHYB A 201       6.443  20.583  -1.794 -0.06 -0.00    +0.001     3.554
ATOM     40  C24AHYB A 201       5.096  20.256  -1.612 -0.11 -0.00    +0.007     3.554
ATOM     41  C29AHYB A 201       1.383  20.120   4.965 -0.37 -0.00    +0.009     3.554
ATOM     42  C30AHYB A 201       1.388  19.474   6.360 -0.52 -0.00    +0.012     3.554
ATOM     43  C31AHYB A 201       1.747  21.622   4.999 -0.41 -0.00    +0.012     3.554
TER
ENDMDL
MODEL        8
USER    Run = 8
USER    Cluster Rank = 5
USER    Number of conformations in this cluster = 1
USER  
USER    RMSD from reference structure       = 3.659 A
USER  
USER    Estimated Free Energy of Binding    =   -5.32 kcal/mol  [=(1)+(2)+(3)-(4)]
USER    Estimated Inhibition Constant, Ki   =  126.86 uM (micromolar)  [Temperature = 298.15 K]
USER    
USER    (1) Final Intermolecular Energy     =   -9.49 kcal/mol
USER        vdW + Hbond + desolv Energy     =   -9.31 kcal/mol
USER        Electrostatic Energy            =   -0.18 kcal/mol
USER    (2) Final Total Internal Energy     =   -4.74 kcal/mol
USER    (3) Torsional Free Energy           =   +4.18 kcal/mol
USER    (4) Unbound System's Energy  [=(2)] =   -4.74 kcal/mol
USER    
USER    
USER  
USER    DPF = dock.dpf
USER    NEWDPF move	lig1fmb.pdbqt
USER    NEWDPF about	5.368000 20.063000 2.466000
USER    NEWDPF tran0	4.619265 17.840008 4.329471
USER    NEWDPF axisangle0	0.890566 0.320287 0.322967 52.491570
USER    NEWDPF quaternion0	0.393829 0.141638 0.142823 0.896905
USER    NEWDPF dihe0	-67.23 -126.08 -136.14 -176.40 -20.24 12.46 159.99 -179.53 -16.85 -46.79 173.93 -122.75 -47.86 -179.96 
USER  
USER                              x       y       z    vdW   Elec        q     RMS 
ATOM      1  N25AHYB A 201       2.881  18.868   4.531 -0.14 +0.06    -0.347     3.659
ATOM      2  H25AHYB A 201       3.414  19.192   3.724 +0.07 -0.04    +0.163     3.659
ATOM      3  C32AHYB A 201       3.555  18.647   5.694 -0.31 -0.00    +0.223     3.659
ATOM      4  O33AHYB A 201       3.010  18.224   6.720 -0.89 -0.02    -0.273     3.659
ATOM      5  C34AHYB A 201       5.080  18.871   5.626 -0.32 -0.02    +0.096     3.659
ATOM      6  C35AHYB A 201       5.270  20.407   5.715 -0.33 -0.01    +0.054     3.659
ATOM      7  C7 AHYB A 201       5.830  20.786   7.098 -0.29 +0.00    -0.046     3.659
ATOM      8  C6 AHYB A 201       5.525  20.156   8.252 -0.27 -0.00    +0.008     3.659
ATOM      9  C5 AHYB A 201       6.092  20.616   9.506 -0.27 -0.00    +0.001     3.659
ATOM     10  C4 AHYB A 201       6.933  21.687   9.526 -0.23 -0.00    +0.012     3.659
ATOM     11  C9 AHYB A 201       7.275  22.381   8.315 -0.23 +0.00    -0.025     3.659
ATOM     12  C8 AHYB A 201       6.743  21.975   7.085 -0.26 +0.00    -0.020     3.659
ATOM     13  C10AHYB A 201       8.173  23.500   8.370 -0.20 -0.00    +0.012     3.659
ATOM     14  C13AHYB A 201       7.077  22.669   5.915 -0.14 +0.00    +0.013     3.659
ATOM     15  C12AHYB A 201       7.941  23.765   5.970 -0.21 -0.00    +0.001     3.659
ATOM     16  C11AHYB A 201       8.489  24.172   7.218 -0.18 -0.00    +0.001     3.659
ATOM     17  C36AHYB A 201       5.718  18.291   4.323 -0.16 -0.08    +0.155     3.659
ATOM     18  S1 AHYB A 201       5.884  19.565   3.084 -0.21 -0.06    +0.152     3.659
ATOM     19  O2 AHYB A 201       4.551  20.047   2.853 -0.15 +0.08    -0.227     3.659
ATOM     20  O3 AHYB A 201       6.902  20.510   3.412 -0.10 +0.07    -0.227     3.659
ATOM     21  C38AHYB A 201       6.459  18.704   1.561 -0.11 -0.02    +0.053     3.659
ATOM     22  C37AHYB A 201       5.377  18.741   0.452 -0.11 -0.01    +0.031     3.659
ATOM     23  C39AHYB A 201       6.633  17.222   1.972 -0.21 -0.02    +0.031     3.659
ATOM     24  C40AHYB A 201       7.806  19.305   1.087 -0.04 -0.01    +0.031     3.659
ATOM     25  C26AHYB A 201       1.418  18.667   4.363 -0.19 -0.04    +0.180     3.659
ATOM     26  C27AHYB A 201       1.159  19.138   2.882 -0.17 -0.07    +0.241     3.659
ATOM     27  N16AHYB A 201       1.910  20.249   2.542 -0.07 +0.06    -0.352     3.659
ATOM     28  H16AHYB A 201       2.540  20.642   3.242 -0.03 -0.04    +0.163     3.659
ATOM     29  O28AHYB A 201       0.438  18.572   2.076 -0.16 +0.13    -0.271     3.659
ATOM     30  C17AHYB A 201       1.845  20.892   1.218 -0.18 +0.00    +0.112     3.659
ATOM     31  C15AHYB A 201       0.340  21.138   0.914 -0.23 +0.02    +0.189     3.659
ATOM     32  O14AHYB A 201       0.330  21.925  -0.332 -0.86 -0.23    -0.399     3.659
ATOM     33  H14AHYB A 201      -0.053  21.347  -0.982 +0.05 +0.06    +0.209     3.659
ATOM     34  C18AHYB A 201       2.489  19.930   0.192 -0.22 -0.00    +0.065     3.659
ATOM     35  C19AHYB A 201       1.664  18.821  -0.427 -0.13 +0.01    -0.056     3.659
ATOM     36  C20AHYB A 201       0.718  19.036  -1.436 -0.13 -0.00    +0.007     3.659
ATOM     37  C21AHYB A 201       0.002  17.995  -2.042 -0.07 -0.00    +0.001     3.659
ATOM     38  C22AHYB A 201       0.236  16.682  -1.617 -0.12 -0.00    +0.000     3.659
ATOM     39  C23AHYB A 201       1.190  16.437  -0.633 -0.20 -0.00    +0.001     3.659
ATOM     40  C24AHYB A 201       1.895  17.490  -0.040 -0.16 -0.00    +0.007     3.659
ATOM     41  C29AHYB A 201       0.551  19.423   5.400 -0.43 -0.00    +0.009     3.659
ATOM     42  C30AHYB A 201       1.241  20.713   5.872 -0.41 -0.00    +0.012     3.659
ATOM     43  C31AHYB A 201      -0.816  19.686   4.727 -0.30 -0.00    +0.012     3.659
TER
ENDMDL
MODEL        9
USER    Run = 9
USER    Cluster Rank = 6
USER    Number of conformations in this cluster = 1
USER  
USER    RMSD from reference structure       = 3.289 A
USER  
USER    Estimated Free Energy of Binding    =   -5.26 kcal/mol  [=(1)+(2)+(3)-(4)]
USER    Estimated Inhibition Constant, Ki   =  139.37 uM (micromolar)  [Temperature = 298.15 K]
USER    
USER    (1) Final Intermolecular Energy     =   -9.44 kcal/mol
USER        vdW + Hbond + desolv Energy     =   -9.26 kcal/mol
USER        Electrostatic Energy            =   -0.17 kcal/mol
USER    (2) Final Total Internal Energy     =   -6.29 kcal/mol
USER    (3) Torsional Free Energy           =   +4.18 kcal/mol
USER    (4) Unbound System's Energy  [=(2)] =   -6.29 kcal/mol
USER    
USER    
USER  
USER    DPF = dock.dpf
USER    NEWDPF move	lig1fmb.pdbqt
USER    NEWDPF about	5.368000 20.063000 2.466000
USER    NEWDPF tran0	3.453903 17.715669 2.596237
USER    NEWDPF axisangle0	0.777822 -0.626166 -0.053937 69.661599
USER    NEWDPF quaternion0	0.444257 -0.357638 -0.030806 0.820842
USER    NEWDPF dihe0	152.14 -180.00 114.19 -81.12 -17.47 50.94 138.15 8.48 17.55 -34.94 -57.96 -81.57 -22.97 -93.53 
USER  
USER                              x       y       z    vdW   Elec        q     RMS 
ATOM      1  N25AHYB A 201       2.893  18.959   4.099 -0.14 +0.07    -0.347     3.289
ATOM      2  H25AHYB A 201       2.454  19.220   3.216 +0.08 -0.04    +0.163     3.289
ATOM      3  C32AHYB A 201       4.216  18.639   4.084 -0.25 -0.06    +0.223     3.289
ATOM      4  O33AHYB A 201       4.836  18.278   5.092 -0.84 +0.03    -0.273     3.289
ATOM      5  C34AHYB A 201       4.886  18.663   2.694 -0.22 -0.04    +0.096     3.289
ATOM      6  C35AHYB A 201       6.410  18.638   2.977 -0.21 -0.03    +0.054     3.289
ATOM      7  C7 AHYB A 201       7.038  17.379   2.355 -0.17 +0.03    -0.046     3.289
ATOM      8  C6 AHYB A 201       6.356  16.435   1.671 -0.16 -0.00    +0.008     3.289
ATOM      9  C5 AHYB A 201       7.047  15.270   1.149 -0.19 -0.00    +0.001     3.289
ATOM     10  C4 AHYB A 201       8.386  15.121   1.349 -0.11 -0.00    +0.012     3.289
ATOM     11  C9 AHYB A 201       9.139  16.105   2.076 -0.09 +0.01    -0.025     3.289
ATOM     12  C8 AHYB A 201       8.510  17.240   2.604 -0.09 +0.02    -0.020     3.289
ATOM     13  C10AHYB A 201      10.552  15.922   2.260 -0.06 -0.00    +0.012     3.289
ATOM     14  C13AHYB A 201       9.256  18.184   3.320 -0.04 -0.01    +0.013     3.289
ATOM     15  C12AHYB A 201      10.628  18.001   3.509 -0.06 -0.00    +0.001     3.289
ATOM     16  C11AHYB A 201      11.269  16.853   2.965 -0.05 -0.00    +0.001     3.289
ATOM     17  C36AHYB A 201       4.481  19.914   1.850 -0.16 -0.04    +0.155     3.289
ATOM     18  S1 AHYB A 201       2.830  19.723   1.197 -0.24 -0.03    +0.152     3.289
ATOM     19  O2 AHYB A 201       2.572  18.310   1.225 -0.14 +0.10    -0.227     3.289
ATOM     20  O3 AHYB A 201       1.895  20.599   1.824 -0.18 +0.02    -0.227     3.289
ATOM     21  C38AHYB A 201       2.929  20.258  -0.562 -0.26 +0.00    +0.053     3.289
ATOM     22  C37AHYB A 201       1.571  20.819  -1.056 -0.32 +0.01    +0.031     3.289
ATOM     23  C39AHYB A 201       3.201  18.964  -1.367 -0.13 -0.00    +0.031     3.289
ATOM     24  C40AHYB A 201       4.083  21.274  -0.746 -0.32 +0.00    +0.031     3.289
ATOM     25  C26AHYB A 201       2.047  18.952   5.321 -0.32 -0.02    +0.180     3.289
ATOM     26  C27AHYB A 201       0.586  18.814   4.745 -0.21 -0.06    +0.241     3.289
ATOM     27  N16AHYB A 201       0.571  18.693   3.367 -0.12 +0.14    -0.352     3.289
ATOM     28  H16AHYB A 201       1.462  18.696   2.870 +0.07 -0.06    +0.163     3.289
ATOM     29  O28AHYB A 201      -0.434  18.748   5.412 -0.30 +0.06    -0.271     3.289
ATOM     30  C17AHYB A 201      -0.669  18.560   2.583 -0.24 -0.07    +0.112     3.289
ATOM     31  C15AHYB A 201      -0.248  18.483   1.089 -0.15 -0.09    +0.189     3.289
ATOM     32  O14AHYB A 201      -0.739  17.172   0.625 -0.10 +0.42    -0.399     3.289
ATOM     33  H14AHYB A 201      -0.747  16.626   1.403 -0.44 -0.52    +0.209     3.289
ATOM     34  C18AHYB A 201      -1.546  19.802   2.870 -0.17 -0.01    +0.065     3.289
ATOM     35  C19AHYB A 201      -1.049  21.183   2.496 -0.17 +0.00    -0.056     3.289
ATOM     36  C20AHYB A 201      -1.091  21.690   1.193 -0.22 +0.00    +0.007     3.289
ATOM     37  C21AHYB A 201      -0.683  22.990   0.868 -0.38 +0.00    +0.001     3.289
ATOM     38  C22AHYB A 201      -0.202  23.818   1.889 -0.35 +0.00    +0.000     3.289
ATOM     39  C23AHYB A 201      -0.173  23.347   3.200 -0.37 +0.00    +0.001     3.289
ATOM     40  C24AHYB A 201      -0.587  22.047   3.504 -0.27 +0.00    +0.007     3.289
ATOM     41  C29AHYB A 201       2.227  20.196   6.224 -0.45 -0.00    +0.009     3.289
ATOM     42  C30AHYB A 201       3.485  20.075   7.100 -0.40 +0.00    +0.012     3.289
ATOM     43  C31AHYB A 201       2.267  21.424   5.285 -0.37 -0.00    +0.012     3.289
TER
ENDMDL
MODEL        6
USER    Run = 6
USER    Cluster Rank = 7
USER    Number of conformations in this cluster = 2
USER  
USER    RMSD from reference structure       = 3.098 A
USER  
USER    Estimated Free Energy of Binding    =   -5.01 kcal/mol  [=(1)+(2)+(3)-(4)]
USER    Estimated Inhibition Constant, Ki   =  211.69 uM (micromolar)  [Temperature = 298.15 K]
USER    
USER    (1) Final Intermolecular Energy     =   -9.19 kcal/mol
USER        vdW + Hbond + desolv Energy     =   -9.03 kcal/mol
USER        Electrostatic Energy            =   -0.16 kcal/mol
USER    (2) Final Total Internal Energy     =   -6.16 kcal/mol
USER    (3) Torsional Free Energy           =   +4.18 kcal/mol
USER    (4) Unbound System's Energy  [=(2)] =   -6.16 kcal/mol
USER    
USER    
USER  
USER    DPF = dock.dpf
USER    NEWDPF move	lig1fmb.pdbqt
USER    NEWDPF about	5.368000 20.063000 2.466000
USER    NEWDPF tran0	5.709372 20.586676 3.530243
USER    NEWDPF axisangle0	-0.213984 0.895875 -0.389382 75.447483
USER    NEWDPF quaternion0	-0.130927 0.548146 -0.238245 0.790970
USER    NEWDPF dihe0	-6.64 65.69 116.54 -32.57 -16.58 -32.89 26.90 10.35 114.61 13.12 -27.96 -39.12 41.26 -30.84 
USER  
USER                              x       y       z    vdW   Elec        q     RMS 
ATOM      1  N25AHYB A 201       4.366  19.570   2.400 -0.07 +0.11    -0.347     3.098
ATOM      2  H25AHYB A 201       4.204  20.576   2.355 -0.21 -0.06    +0.163     3.098
ATOM      3  C32AHYB A 201       4.624  19.019   3.617 -0.22 -0.07    +0.223     3.098
ATOM      4  O33AHYB A 201       4.864  17.816   3.778 -0.76 +0.11    -0.273     3.098
ATOM      5  C34AHYB A 201       4.692  20.016   4.793 -0.28 -0.02    +0.096     3.098
ATOM      6  C35AHYB A 201       5.994  19.658   5.554 -0.29 -0.02    +0.054     3.098
ATOM      7  C7 AHYB A 201       6.343  20.778   6.551 -0.25 +0.01    -0.046     3.098
ATOM      8  C6 AHYB A 201       6.030  20.766   7.864 -0.29 -0.00    +0.008     3.098
ATOM      9  C5 AHYB A 201       6.384  21.891   8.709 -0.29 -0.00    +0.001     3.098
ATOM     10  C4 AHYB A 201       7.031  22.967   8.181 -0.25 -0.00    +0.012     3.098
ATOM     11  C9 AHYB A 201       7.375  23.011   6.787 -0.23 +0.00    -0.025     3.098
ATOM     12  C8 AHYB A 201       7.044  21.950   5.934 -0.22 +0.00    -0.020     3.098
ATOM     13  C10AHYB A 201       8.068  24.157   6.264 -0.21 -0.00    +0.012     3.098
ATOM     14  C13AHYB A 201       7.376  22.014   4.576 -0.17 -0.00    +0.013     3.098
ATOM     15  C12AHYB A 201       8.039  23.133   4.065 -0.16 -0.00    +0.001     3.098
ATOM     16  C11AHYB A 201       8.384  24.207   4.932 -0.18 -0.00    +0.001     3.098
ATOM     17  C36AHYB A 201       3.442  19.933   5.727 -0.34 -0.01    +0.155     3.098
ATOM     18  S1 AHYB A 201       2.021  20.678   4.943 -0.40 -0.02    +0.152     3.098
ATOM     19  O2 AHYB A 201       1.850  21.947   5.594 -0.25 +0.01    -0.227     3.098
ATOM     20  O3 AHYB A 201       2.111  20.649   3.520 -0.19 +0.05    -0.227     3.098
ATOM     21  C38AHYB A 201       0.592  19.604   5.385 -0.39 -0.01    +0.053     3.098
ATOM     22  C37AHYB A 201       0.184  18.695   4.197 -0.35 -0.01    +0.031     3.098
ATOM     23  C39AHYB A 201      -0.586  20.576   5.634 -0.43 -0.00    +0.031     3.098
ATOM     24  C40AHYB A 201       0.913  18.789   6.662 -0.53 -0.00    +0.031     3.098
ATOM     25  C26AHYB A 201       4.304  18.798   1.131 -0.10 -0.06    +0.180     3.098
ATOM     26  C27AHYB A 201       5.767  18.932   0.558 -0.05 -0.05    +0.241     3.098
ATOM     27  N16AHYB A 201       6.733  18.730   1.527 -0.01 +0.11    -0.352     3.098
ATOM     28  H16AHYB A 201       6.431  18.515   2.477 +0.05 -0.08    +0.163     3.098
ATOM     29  O28AHYB A 201       6.052  19.124  -0.613 -0.02 +0.03    -0.271     3.098
ATOM     30  C17AHYB A 201       8.178  18.810   1.252 -0.03 -0.03    +0.112     3.098
ATOM     31  C15AHYB A 201       8.879  17.860   2.263 -0.06 -0.10    +0.189     3.098
ATOM     32  O14AHYB A 201       7.778  17.193   2.981 -0.05 +0.49    -0.399     3.098
ATOM     33  H14AHYB A 201       8.202  16.538   3.523 -0.39 -0.49    +0.209     3.098
ATOM     34  C18AHYB A 201       8.617  20.281   1.446 -0.02 -0.01    +0.065     3.098
ATOM     35  C19AHYB A 201       7.827  21.398   0.795 -0.04 +0.01    -0.056     3.098
ATOM     36  C20AHYB A 201       6.630  21.900   1.318 -0.16 -0.00    +0.007     3.098
ATOM     37  C21AHYB A 201       5.939  22.973   0.740 -0.16 -0.00    +0.001     3.098
ATOM     38  C22AHYB A 201       6.460  23.564  -0.416 -0.26 -0.00    +0.000     3.098
ATOM     39  C23AHYB A 201       7.663  23.100  -0.943 -0.08 -0.00    +0.001     3.098
ATOM     40  C24AHYB A 201       8.340  22.029  -0.351 -0.03 -0.00    +0.007     3.098
ATOM     41  C29AHYB A 201       3.219  19.289   0.141 -0.18 -0.00    +0.009     3.098
ATOM     42  C30AHYB A 201       1.820  18.806   0.560 -0.19 -0.00    +0.012     3.098
ATOM     43  C31AHYB A 201       3.329  20.831   0.091 -0.28 +0.00    +0.012     3.098
TER
ENDMDL
MODEL        3
USER    Run = 3
USER    Cluster Rank = 8
USER    Number of conformations in this cluster = 1
USER  
USER    RMSD from reference structure       = 2.999 A
USER  
USER    Estimated Free Energy of Binding    =   -4.79 kcal/mol  [=(1)+(2)+(3)-(4)]
USER    Estimated Inhibition Constant, Ki   =  305.70 uM (micromolar)  [Temperature = 298.15 K]
USER    
USER    (1) Final Intermolecular Energy     =   -8.97 kcal/mol
USER        vdW + Hbond + desolv Energy     =   -8.97 kcal/mol
USER        Electrostatic Energy            =   +0.00 kcal/mol
USER    (2) Final Total Internal Energy     =   -5.97 kcal/mol
USER    (3) Torsional Free Energy           =   +4.18 kcal/mol
USER    (4) Unbound System's Energy  [=(2)] =   -5.97 kcal/mol
USER    
USER    
USER  
USER    DPF = dock.dpf
USER    NEWDPF move	lig1fmb.pdbqt
USER    NEWDPF about	5.368000 20.063000 2.466000
USER    NEWDPF tran0	3.901152 20.144873 2.599545
USER    NEWDPF axisangle0	0.464934 0.885328 -0.005560 -44.655065
USER    NEWDPF quaternion0	0.176629 0.336337 -0.002112 -0.925027
USER    NEWDPF dihe0	-82.42 11.90 132.58 103.36 5.28 -20.69 31.32 150.82 10.32 12.56 -37.13 -46.03 40.50 26.21 
USER  
USER                              x       y       z    vdW   Elec        q     RMS 
ATOM      1  N25AHYB A 201       3.306  19.478   4.421 -0.12 +0.07    -0.347     2.999
ATOM      2  H25AHYB A 201       3.313  20.497   4.382 -0.04 -0.04    +0.163     2.999
ATOM      3  C32AHYB A 201       4.365  18.811   3.884 -0.24 -0.06    +0.223     2.999
ATOM      4  O33AHYB A 201       4.440  17.576   3.851 -0.60 +0.08    -0.273     2.999
ATOM      5  C34AHYB A 201       5.440  19.700   3.225 -0.19 -0.03    +0.096     2.999
ATOM      6  C35AHYB A 201       4.815  20.165   1.884 -0.17 -0.01    +0.054     2.999
ATOM      7  C7 AHYB A 201       5.644  21.319   1.293 -0.12 +0.01    -0.046     2.999
ATOM      8  C6 AHYB A 201       6.661  21.941   1.926 -0.13 -0.00    +0.008     2.999
ATOM      9  C5 AHYB A 201       7.358  23.039   1.284 -0.17 -0.00    +0.001     2.999
ATOM     10  C4 AHYB A 201       6.988  23.451   0.040 -0.20 -0.00    +0.012     2.999
ATOM     11  C9 AHYB A 201       5.907  22.813  -0.659 -0.26 +0.00    -0.025     2.999
ATOM     12  C8 AHYB A 201       5.202  21.755  -0.071 -0.23 +0.00    -0.020     2.999
ATOM     13  C10AHYB A 201       5.549  23.266  -1.975 -0.32 -0.00    +0.012     2.999
ATOM     14  C13AHYB A 201       4.144  21.151  -0.761 -0.28 +0.00    +0.013     2.999
ATOM     15  C12AHYB A 201       3.788  21.599  -2.036 -0.26 +0.00    +0.001     2.999
ATOM     16  C11AHYB A 201       4.509  22.668  -2.637 -0.32 +0.00    +0.001     2.999
ATOM     17  C36AHYB A 201       6.789  18.946   2.995 -0.14 -0.08    +0.155     2.999
ATOM     18  S1 AHYB A 201       6.584  17.645   1.790 -0.19 -0.08    +0.152     2.999
ATOM     19  O2 AHYB A 201       6.272  16.468   2.551 -0.27 +0.21    -0.227     2.999
ATOM     20  O3 AHYB A 201       5.709  18.023   0.729 -0.08 +0.07    -0.227     2.999
ATOM     21  C38AHYB A 201       8.243  17.415   1.023 -0.06 -0.02    +0.053     2.999
ATOM     22  C37AHYB A 201       9.377  17.688   2.044 -0.07 -0.01    +0.031     2.999
ATOM     23  C39AHYB A 201       8.344  18.510  -0.066 -0.01 -0.00    +0.031     2.999
ATOM     24  C40AHYB A 201       8.347  16.003   0.396 -0.05 -0.01    +0.031     2.999
ATOM     25  C26AHYB A 201       2.140  18.814   5.061 -0.27 -0.02    +0.180     2.999
ATOM     26  C27AHYB A 201       1.092  18.721   3.887 -0.19 -0.07    +0.241     2.999
ATOM     27  N16AHYB A 201       1.686  18.434   2.671 -0.12 +0.15    -0.352     2.999
ATOM     28  H16AHYB A 201       2.698  18.307   2.643 -0.08 -0.07    +0.163     2.999
ATOM     29  O28AHYB A 201      -0.119  18.817   4.011 -0.21 +0.10    -0.271     2.999
ATOM     30  C17AHYB A 201       0.927  18.303   1.415 -0.23 -0.06    +0.112     2.999
ATOM     31  C15AHYB A 201       1.828  17.508   0.429 -0.05 -0.10    +0.189     2.999
ATOM     32  O14AHYB A 201       3.141  18.176   0.494 -0.05 +0.15    -0.399     2.999
ATOM     33  H14AHYB A 201       3.651  17.651   1.100 -0.45 -0.16    +0.209     2.999
ATOM     34  C18AHYB A 201       0.622  19.728   0.895 -0.17 -0.01    +0.065     2.999
ATOM     35  C19AHYB A 201       0.138  20.796   1.854 -0.18 +0.00    -0.056     2.999
ATOM     36  C20AHYB A 201       0.964  21.800   2.371 -0.15 +0.00    +0.007     2.999
ATOM     37  C21AHYB A 201       0.492  22.816   3.211 -0.33 +0.00    +0.001     2.999
ATOM     38  C22AHYB A 201      -0.864  22.827   3.557 -0.30 +0.00    +0.000     2.999
ATOM     39  C23AHYB A 201      -1.714  21.854   3.036 -0.24 +0.00    +0.001     2.999
ATOM     40  C24AHYB A 201      -1.224  20.848   2.198 -0.17 -0.00    +0.007     2.999
ATOM     41  C29AHYB A 201       1.592  19.556   6.305 -0.51 -0.00    +0.009     2.999
ATOM     42  C30AHYB A 201       2.650  19.641   7.417 -0.39 +0.00    +0.012     2.999
ATOM     43  C31AHYB A 201       1.119  20.946   5.820 -0.34 -0.00    +0.012     2.999
TER
ENDMDL


AVSFLD: # AVS field file
AVSFLD: #
AVSFLD: # Created by AutoDock
AVSFLD: #
AVSFLD: ndim=2           # number of dimensions in the field
AVSFLD: nspace=1         # number of physical coordinates
AVSFLD: veclen=7         # vector size
AVSFLD: dim1=43          # atoms
AVSFLD: dim2=8           # conformations
AVSFLD: data=Real       # data type (byte,integer,Real,double)
AVSFLD: field=uniform    # field coordinate layout
AVSFLD: label= x y z vdW Elec q RMS
AVSFLD: variable 1 file = dock.dlg.pdb filetype = ascii offset = 5 stride = 12
AVSFLD: variable 2 file = dock.dlg.pdb filetype = ascii offset = 6 stride = 12
AVSFLD: variable 3 file = dock.dlg.pdb filetype = ascii offset = 7 stride = 12
AVSFLD: variable 4 file = dock.dlg.pdb filetype = ascii offset = 8 stride = 12
AVSFLD: variable 5 file = dock.dlg.pdb filetype = ascii offset = 9 stride = 12
AVSFLD: variable 6 file = dock.dlg.pdb filetype = ascii offset = 10 stride = 12
AVSFLD: variable 7 file = dock.dlg.pdb filetype = ascii offset = 11 stride = 12
AVSFLD: # end of file

>>> Closing the docking parameter file (DPF)...
This docking finished at:			10:34 14" p.m., 11/24/2025


________________________________________________________________________________

.\autodock4.exe: Successful Completion on "LAPTOP-PFTQOH6G"

Real= 31m 00.42s,  CPU= 3m 30.72s,  System= 7.78s
________________________________________________________________________________

