REMARK  14 active torsions:
REMARK  status: ('A' for Active; 'I' for Inactive)
REMARK    1  A    between atoms: S1@A_1  and  C36@A_39 
REMARK    2  A    between atoms: S1@A_1  and  C38@A_41 
REMARK    3  A    between atoms: C7@A_7  and  C35@A_38 
REMARK    4  A    between atoms: O14@A_14  and  C15@A_16 
REMARK    5  A    between atoms: C15@A_16  and  C17@A_19 
REMARK    6  A    between atoms: N16@A_17  and  C17@A_19 
REMARK       I    between atoms: N16@A_17  and  C27@A_30 
REMARK    7  A    between atoms: C17@A_19  and  C18@A_20 
REMARK    8  A    between atoms: C18@A_20  and  C19@A_21 
REMARK    9  A    between atoms: N25@A_27  and  C26@A_29 
REMARK       I    between atoms: N25@A_27  and  C32@A_35 
REMARK   10  A    between atoms: C26@A_29  and  C27@A_30 
REMARK   11  A    between atoms: C26@A_29  and  C29@A_32 
REMARK   12  A    between atoms: C32@A_35  and  C34@A_37 
REMARK   13  A    between atoms: C34@A_37  and  C35@A_38 
REMARK   14  A    between atoms: C34@A_37  and  C36@A_39 
ROOT
HETATM    1  N25AHYB A 201       3.696  19.957   3.611  0.50  9.11    -0.347 N 
ATOM      2  H25AHYB A 201       3.843  20.901   3.253  1.00  0.00     0.163 HD
HETATM    3  C32AHYB A 201       4.773  19.287   4.106  0.50  9.72     0.223 C 
HETATM    4  O33AHYB A 201       4.710  18.128   4.534  0.50 12.45    -0.273 OA
ENDROOT
BRANCH   3   5
HETATM    5  C34AHYB A 201       6.118  20.038   4.013  0.50 12.18     0.096 C 
BRANCH   5   6
HETATM    6  C35AHYB A 201       6.841  19.425   2.786  0.50 12.81     0.054 C 
BRANCH   6   7
HETATM    7  C7 AHYB A 201       7.825  20.449   2.193  0.50 16.97    -0.046 A 
HETATM    8  C6 AHYB A 201       7.793  21.777   2.433  0.50 20.42     0.008 A 
HETATM    9  C5 AHYB A 201       8.756  22.657   1.797  0.50 22.47     0.001 A 
HETATM   10  C4 AHYB A 201       9.695  22.148   0.952  0.50 22.25     0.012 A 
HETATM   11  C9 AHYB A 201       9.753  20.740   0.673  0.50 22.66    -0.025 A 
HETATM   12  C8 AHYB A 201       8.837  19.857   1.259  0.50 19.85    -0.020 A 
HETATM   13  C10AHYB A 201      10.763  20.235  -0.215  0.50 19.04     0.012 A 
HETATM   14  C13AHYB A 201       8.900  18.489   0.968  0.50 17.94     0.013 A 
HETATM   15  C12AHYB A 201       9.875  17.999   0.095  0.50 23.42     0.001 A 
HETATM   16  C11AHYB A 201      10.811  18.894  -0.493  0.50 18.84     0.001 A 
ENDBRANCH   6   7
ENDBRANCH   5   6
BRANCH   5  17
HETATM   17  C36AHYB A 201       6.977  19.900   5.311  0.50 11.71     0.155 C 
BRANCH  17  18
HETATM   18  S1 AHYB A 201       6.488  21.119   6.520  0.50 15.61     0.152 S 
HETATM   19  O2 AHYB A 201       6.964  22.374   6.008  0.50 19.88    -0.227 OA
HETATM   20  O3 AHYB A 201       5.111  21.007   6.876  0.50 19.03    -0.227 OA
BRANCH  18  21
HETATM   21  C38AHYB A 201       7.442  20.717   8.043  0.50 17.42     0.053 C 
HETATM   22  C37AHYB A 201       6.931  19.408   8.697  0.50 20.06     0.031 C 
HETATM   23  C39AHYB A 201       7.132  21.866   9.033  0.50 16.30     0.031 C 
HETATM   24  C40AHYB A 201       8.956  20.660   7.723  0.50 19.07     0.031 C 
ENDBRANCH  18  21
ENDBRANCH  17  18
ENDBRANCH   5  17
ENDBRANCH   3   5
BRANCH   1  25
HETATM   25  C26AHYB A 201       2.319  19.400   3.559  0.50  4.80     0.180 C 
BRANCH  25  26
HETATM   26  C27AHYB A 201       1.830  19.787   2.111  0.50  7.43     0.241 C 
HETATM   27  N16AHYB A 201       2.244  18.878   1.154  0.50  8.13    -0.352 N 
ATOM     28  H16AHYB A 201       2.795  18.074   1.454  1.00  0.00     0.163 HD
HETATM   29  O28AHYB A 201       1.110  20.734   1.838  0.50  8.24    -0.271 OA
BRANCH  27  30
HETATM   30  C17AHYB A 201       1.927  19.016  -0.278  0.50  9.99     0.112 C 
BRANCH  30  31
HETATM   31  C15AHYB A 201       1.191  17.714  -0.701  0.50  8.24     0.189 C 
BRANCH  31  32
HETATM   32  O14AHYB A 201       2.159  16.632  -0.443  0.50 12.26    -0.399 OA
ATOM     33  H14AHYB A 201       1.709  15.836  -0.702  1.00  0.00     0.209 HD
ENDBRANCH  31  32
ENDBRANCH  30  31
BRANCH  30  34
HETATM   34  C18AHYB A 201       3.260  19.198  -1.043  0.50  6.21     0.065 C 
BRANCH  34  35
HETATM   35  C19AHYB A 201       3.985  20.527  -0.994  0.50  6.94    -0.056 A 
HETATM   36  C20AHYB A 201       5.032  20.801  -0.107  0.50 16.39     0.007 A 
HETATM   37  C21AHYB A 201       5.734  22.013  -0.110  0.50 20.94     0.001 A 
HETATM   38  C22AHYB A 201       5.369  22.999  -1.034  0.50 21.72     0.000 A 
HETATM   39  C23AHYB A 201       4.347  22.743  -1.945  0.50 17.14     0.001 A 
HETATM   40  C24AHYB A 201       3.659  21.526  -1.927  0.50 16.26     0.007 A 
ENDBRANCH  34  35
ENDBRANCH  30  34
ENDBRANCH  27  30
ENDBRANCH  25  26
BRANCH  25  41
HETATM   41  C29AHYB A 201       1.381  19.922   4.675  0.50  7.39     0.009 C 
HETATM   42  C30AHYB A 201      -0.090  19.597   4.367  0.50  6.71     0.012 C 
HETATM   43  C31AHYB A 201       1.870  19.288   5.998  0.50  7.05     0.012 C 
ENDBRANCH  25  41
ENDBRANCH   1  25
TORSDOF 14
