REMARK  13 active torsions:
REMARK  status: ('A' for Active; 'I' for Inactive)
REMARK    1  A    between atoms: C1_1  and  C3_11 
REMARK    2  A    between atoms: C1_1  and  N3_12 
REMARK    3  A    between atoms: S1_6  and  O5_19 
REMARK    4  A    between atoms: S1_6  and  O6_22 
REMARK    5  A    between atoms: S1_6  and  N3_12 
REMARK    6  A    between atoms: C2_7  and  N2_8 
REMARK    7  A    between atoms: N2_8  and  S2_10 
REMARK    8  A    between atoms: N2_8  and  C18_37 
REMARK    9  A    between atoms: S2_10  and  C25_44 
REMARK   10  A    between atoms: N3_12  and  C4_14 
REMARK   11  A    between atoms: N4_15  and  C17_36 
REMARK   12  A    between atoms: N5_18  and  C30_49 
REMARK   13  A    between atoms: C18_37  and  C19_38 
ROOT
HETATM    1  N1  4B1 A 201      58.173  33.428  23.013  1.00 20.75    -0.071 N 
ATOM      2  H11 4B1 A 201      57.952  33.744  22.068  1.00  0.00     0.277 HD
ATOM      3  H12 4B1 A 201      58.279  32.436  22.802  1.00  0.00     0.277 HD
HETATM    4  C2  4B1 A 201      57.802  34.183  25.180  1.00 49.11     0.152 C 
HETATM    5  C4  4B1 A 201      59.254  33.892  24.996  1.00 42.42     0.149 C 
HETATM    6  C5  4B1 A 201      57.130  33.686  23.937  1.00 26.07     0.260 C 
HETATM    7  C6  4B1 A 201      59.373  34.019  23.532  1.00 23.48     0.260 C 
ENDROOT
BRANCH   5   8
HETATM    8  N3  4B1 A 201      59.773  32.664  25.660  1.00 42.05    -0.306 N 
BRANCH   8   9
HETATM    9  C1  4B1 A 201      59.359  31.339  25.226  1.00 39.83     0.112 C 
BRANCH   9  10
HETATM   10  C3  4B1 A 201      58.053  31.017  25.476  1.00 29.06    -0.020 A 
HETATM   11  C7  4B1 A 201      57.533  31.054  26.721  1.00 40.63     0.013 A 
HETATM   12  C9  4B1 A 201      56.238  30.705  26.936  1.00 34.43     0.001 A 
HETATM   13  C11 4B1 A 201      55.427  30.332  25.931  1.00 25.48     0.000 A 
HETATM   14  C10 4B1 A 201      55.975  30.305  24.696  1.00 33.34     0.001 A 
HETATM   15  C8  4B1 A 201      57.275  30.625  24.451  1.00 26.88     0.013 A 
ENDBRANCH   9  10
ENDBRANCH   8   9
BRANCH   8  16
HETATM   16  S1  4B1 A 201      60.773  32.707  26.607  1.00 49.50     0.008 SA
HETATM   17  C13 4B1 A 201      62.596  31.884  25.304  1.00 33.45     0.158 A 
HETATM   18  C12 4B1 A 201      62.037  32.952  25.937  1.00 45.39     0.036 A 
HETATM   19  C15 4B1 A 201      63.784  32.075  24.679  1.00 23.03     0.033 A 
HETATM   20  C14 4B1 A 201      62.651  34.174  25.922  1.00 38.57     0.022 A 
HETATM   21  C16 4B1 A 201      63.844  34.327  25.284  1.00 23.41     0.037 A 
HETATM   22  C17 4B1 A 201      64.427  33.276  24.665  1.00 20.18     0.100 A 
BRANCH  16  23
HETATM   23  O5  4B1 A 201      60.566  33.755  27.592  1.00 67.65    -0.318 OA
ATOM     24  H5  4B1 A 201      60.452  34.546  27.079  1.00  0.00     0.229 HD
ENDBRANCH  16  23
BRANCH  16  25
HETATM   25  O6  4B1 A 201      60.951  31.472  27.408  1.00 55.37    -0.318 OA
ATOM     26  H6  4B1 A 201      61.086  30.787  26.764  1.00  0.00     0.229 HD
ENDBRANCH  16  25
BRANCH  22  27
HETATM   27  N4  4B1 A 201      65.551  33.404  24.021  1.00 24.65    -0.116 N 
HETATM   28  O1  4B1 A 201      66.063  32.331  23.272  1.00 22.76    -0.532 OA
HETATM   29  O2  4B1 A 201      66.208  34.622  24.023  1.00 28.18    -0.532 OA
ENDBRANCH  22  27
ENDBRANCH   8  16
ENDBRANCH   5   8
BRANCH   4  30
HETATM   30  N2  4B1 A 201      57.486  35.563  25.626  1.00 43.49    -0.273 N 
BRANCH  30  31
HETATM   31  S2  4B1 A 201      56.710  35.709  26.668  1.00 53.39     0.265 S 
HETATM   32  O3  4B1 A 201      57.277  34.902  27.731  1.00 54.67    -0.200 OA
HETATM   33  O4  4B1 A 201      56.615  37.090  27.192  1.00 54.05    -0.200 OA
BRANCH  31  34
HETATM   34  C25 4B1 A 201      55.258  35.229  26.388  1.00 42.42     0.080 A 
HETATM   35  C26 4B1 A 201      54.892  34.000  26.839  1.00 42.97     0.028 A 
HETATM   36  C28 4B1 A 201      53.629  33.544  26.635  1.00 31.35     0.037 A 
HETATM   37  C30 4B1 A 201      52.712  34.274  25.930  1.00 30.89     0.102 A 
HETATM   38  C29 4B1 A 201      53.057  35.513  25.482  1.00 22.28     0.037 A 
HETATM   39  C27 4B1 A 201      54.321  35.988  25.717  1.00 36.00     0.028 A 
BRANCH  37  40
HETATM   40  N5  4B1 A 201      51.521  33.772  25.726  1.00 44.51    -0.116 N 
HETATM   41  O7  4B1 A 201      50.627  34.458  24.958  1.00 25.89    -0.532 OA
HETATM   42  O8  4B1 A 201      51.113  32.597  26.384  1.00 35.07    -0.532 OA
ENDBRANCH  37  40
ENDBRANCH  31  34
ENDBRANCH  30  31
BRANCH  30  43
HETATM   43  C18 4B1 A 201      57.918  36.684  24.832  1.00 34.87     0.115 C 
BRANCH  43  44
HETATM   44  C19 4B1 A 201      59.208  37.047  24.954  1.00 27.07    -0.020 A 
HETATM   45  C20 4B1 A 201      59.830  37.023  26.154  1.00 34.66     0.013 A 
HETATM   46  C22 4B1 A 201      61.120  37.434  26.301  1.00 28.38     0.001 A 
HETATM   47  C24 4B1 A 201      61.794  37.877  25.207  1.00 24.71     0.000 A 
HETATM   48  C23 4B1 A 201      61.163  37.907  23.984  1.00 36.43     0.001 A 
HETATM   49  C21 4B1 A 201      59.871  37.495  23.857  1.00 25.62     0.013 A 
ENDBRANCH  43  44
ENDBRANCH  30  43
ENDBRANCH   4  30
TORSDOF 13
