REMARK  17 active torsions:
REMARK  status: ('A' for Active; 'I' for Inactive)
REMARK    1  A    between atoms: N1@A_2  and  C10@A_24 
REMARK    2  A    between atoms: O2@A_7  and  C11@A_25 
REMARK    3  A    between atoms: N3@A_10  and  C12@A_26 
REMARK    4  A    between atoms: O3@A_12  and  C28@A_42 
REMARK    5  A    between atoms: O3@A_12  and  C27@A_41 
REMARK    6  A    between atoms: C4@A_13  and  C29@A_43 
REMARK       I    between atoms: N4@A_14  and  C26@A_40 
REMARK    7  A    between atoms: N4@A_14  and  C25@A_39 
REMARK    8  A    between atoms: O4@A_16  and  C24@A_38 
REMARK    9  A    between atoms: C10@A_24  and  C11@A_25 
REMARK   10  A    between atoms: C10@A_24  and  C13@A_27 
REMARK   11  A    between atoms: C12@A_26  and  C22@A_36 
REMARK   12  A    between atoms: C12@A_26  and  C23@A_37 
REMARK   13  A    between atoms: C20@A_34  and  C22@A_36 
REMARK   14  A    between atoms: C23@A_37  and  C24@A_38 
REMARK   15  A    between atoms: C24@A_38  and  C25@A_39 
REMARK   16  A    between atoms: C25@A_39  and  C29@A_43 
REMARK   17  A    between atoms: C26@A_40  and  C27@A_41 
ROOT
HETATM    1  C23AAB1 A 200      -1.051  22.335   0.441  0.50 21.80     0.059 C 
ENDROOT
BRANCH   1   2
HETATM    2  C12AAB1 A 200       0.350  22.207   1.046  0.50 20.00     0.090 C 
BRANCH   2   3
HETATM    3  N3 AAB1 A 200       0.391  22.100   2.504  0.50 17.93    -0.368 N 
HETATM    4  C11AAB1 A 200       0.928  22.885   3.358  0.50 15.73     0.135 C 
ATOM      5  H3 AAB1 A 200      -0.076  21.282   2.895  1.00  0.00     0.161 HD
BRANCH   4   6
HETATM    6  O2 AAB1 A 200       1.992  23.634   3.121  0.50 14.11    -0.348 OA
ATOM      7  H2 AAB1 A 200       2.391  24.217   3.756  1.00  0.00     0.219 HD
ENDBRANCH   4   6
BRANCH   4   8
HETATM    8  C10AAB1 A 200       0.317  22.964   4.756  0.50 15.90     0.166 C 
BRANCH   8   9
HETATM    9  N1 AAB1 A 200       0.792  21.824   5.547  0.50 15.40    -0.322 N 
HETATM   10  C3 AAB1 A 200      -0.077  21.213   6.383  0.50 15.31     0.319 C 
HETATM   11  O1 AAB1 A 200      -1.275  21.211   6.104  0.50 16.48    -0.247 OA
HETATM   12  N2 AAB1 A 200       0.361  20.234   7.191  0.50 14.95    -0.343 N 
HETATM   13  C1 AAB1 A 200       1.727  20.191   7.718  0.50 15.07     0.126 C 
ATOM     14  H2 AAB1 A 200      -0.285  19.488   7.449  1.00  0.00     0.164 HD
HETATM   15  C37AAB1 A 200       2.636  20.522   6.541  0.50 16.52     0.040 C 
HETATM   16  C2 AAB1 A 200       2.205  21.859   5.936  0.50 15.19     0.130 C 
ENDBRANCH   8   9
BRANCH   8  17
HETATM   17  C13AAB1 A 200       0.625  24.301   5.432  0.50 16.06     0.008 C 
HETATM   18  C14AAB1 A 200       1.072  25.446   4.509  0.50 17.15     0.012 C 
HETATM   19  C15AAB1 A 200      -0.523  24.797   6.320  0.50 17.74     0.012 C 
ENDBRANCH   8  17
ENDBRANCH   4   8
ENDBRANCH   2   3
BRANCH   2  20
HETATM   20  C22AAB1 A 200       0.797  20.843   0.545  0.50 20.97     0.063 C 
BRANCH  20  21
HETATM   21  C20AAB1 A 200       0.362  19.844   1.592  0.50 20.44    -0.056 A 
HETATM   22  C19AAB1 A 200      -0.958  19.552   1.919  0.50 19.48     0.007 A 
HETATM   23  C18AAB1 A 200      -1.203  18.604   2.916  0.50 21.05     0.001 A 
HETATM   24  C17AAB1 A 200      -0.177  17.938   3.591  0.50 21.60     0.000 A 
HETATM   25  C16AAB1 A 200       1.132  18.231   3.251  0.50 20.68     0.001 A 
HETATM   26  C21AAB1 A 200       1.380  19.173   2.259  0.50 19.26     0.007 A 
ENDBRANCH  20  21
ENDBRANCH   2  20
ENDBRANCH   1   2
BRANCH   1  27
HETATM   27  C24AAB1 A 200      -1.562  23.768   0.584  0.50 21.13     0.143 C 
BRANCH  27  28
HETATM   28  O4 AAB1 A 200      -2.933  23.774   0.246  0.50 28.55    -0.393 OA
ATOM     29  H4 AAB1 A 200      -3.251  24.665   0.335  1.00  0.00     0.210 HD
ENDBRANCH  27  28
BRANCH  27  30
HETATM   30  C25AAB1 A 200      -0.719  24.755  -0.197  0.50 19.18     0.117 C 
BRANCH  30  31
HETATM   31  N4 AAB1 A 200      -0.492  24.390  -1.596  0.50 17.68    -0.352 N 
HETATM   32  C26AAB1 A 200       0.608  23.799  -2.047  0.50 17.34     0.242 C 
HETATM   33  O5 AAB1 A 200       1.509  23.345  -1.336  0.50 16.06    -0.271 OA
ATOM     34  H4 AAB1 A 200      -1.228  24.604  -2.269  1.00  0.00     0.163 HD
BRANCH  32  35
HETATM   35  C27AAB1 A 200       0.727  23.676  -3.551  0.50 13.58     0.278 C 
BRANCH  35  36
HETATM   36  O3 AAB1 A 200      -0.600  23.773  -4.198  0.50 14.24    -0.341 OA
BRANCH  36  37
HETATM   37  C28AAB1 A 200      -0.584  24.039  -5.517  0.50 11.88     0.081 A 
HETATM   38  C30AAB1 A 200      -0.680  22.967  -6.398  0.50 11.54    -0.028 A 
HETATM   39  C31AAB1 A 200      -0.644  23.241  -7.765  0.50 10.80     0.009 A 
HETATM   40  C36AAB1 A 200      -0.804  21.583  -5.801  0.50 14.48     0.051 C 
HETATM   41  C32AAB1 A 200      -0.526  24.547  -8.244  0.50  8.57     0.001 A 
HETATM   42  C33AAB1 A 200      -0.431  25.606  -7.363  0.50 10.31     0.009 A 
HETATM   43  C34AAB1 A 200      -0.462  25.349  -5.988  0.50 10.06    -0.028 A 
HETATM   44  C35AAB1 A 200      -0.353  26.508  -5.010  0.50 12.48     0.051 C 
ENDBRANCH  36  37
ENDBRANCH  35  36
ENDBRANCH  32  35
ENDBRANCH  30  31
BRANCH  30  45
HETATM   45  C29AAB1 A 200      -1.090  26.218  -0.011  0.50 19.72     0.066 C 
BRANCH  45  46
HETATM   46  C4 AAB1 A 200      -0.617  26.998  -1.202  0.50 20.14    -0.056 A 
HETATM   47  C5 AAB1 A 200      -1.284  28.156  -1.582  0.50 22.01     0.007 A 
HETATM   48  C6 AAB1 A 200      -0.862  28.896  -2.692  0.50 22.81     0.001 A 
HETATM   49  C7 AAB1 A 200       0.227  28.495  -3.457  0.50 20.95     0.000 A 
HETATM   50  C8 AAB1 A 200       0.886  27.338  -3.075  0.50 21.92     0.001 A 
HETATM   51  C9 AAB1 A 200       0.477  26.594  -1.966  0.50 20.71     0.007 A 
ENDBRANCH  45  46
ENDBRANCH  30  45
ENDBRANCH  27  30
ENDBRANCH   1  27
TORSDOF 17
