REMARK  19 active torsions:
REMARK  status: ('A' for Active; 'I' for Inactive)
REMARK    1  A    between atoms: N_1  and  CA_5 
REMARK    2  A    between atoms: CA_5  and  C_6 
REMARK    3  A    between atoms: CA_5  and  CB_8 
REMARK       I    between atoms: C_6  and  N_11 
REMARK    4  A    between atoms: N_11  and  CA_13 
REMARK    5  A    between atoms: CA_13  and  C_14 
REMARK    6  A    between atoms: CA_13  and  CB_16 
REMARK       I    between atoms: C_14  and  N_19 
REMARK    7  A    between atoms: N_19  and  CA_21 
REMARK    8  A    between atoms: CA_21  and  CB_28 
REMARK    9  A    between atoms: CA_21  and  CH@A_32 
REMARK   10  A    between atoms: CA_21  and  CH@B_33 
REMARK   11  A    between atoms: C@A_22  and  O@A_24 
REMARK   12  A    between atoms: C@A_22  and  CM@A_38 
REMARK   13  A    between atoms: C@B_23  and  O@B_26 
REMARK   14  A    between atoms: C@B_23  and  CM@B_39 
REMARK   15  A    between atoms: CB_28  and  CG_29 
REMARK   16  A    between atoms: CH@A_32  and  OH@A_34 
REMARK   17  A    between atoms: CH@A_32  and  CM@A_38 
REMARK   18  A    between atoms: CH@B_33  and  OH@B_36 
REMARK   19  A    between atoms: CH@B_33  and  CM@B_39 
ROOT
ATOM      1  C   VAL M   3       0.536   2.861  18.416  1.00 25.12     0.241 C 
ATOM      2  O   VAL M   3      -0.304   3.728  18.696  1.00 21.94    -0.271 OA
HETATM    3  N   STA M   4       1.102   2.124  19.386  1.00 28.68    -0.345 N 
ATOM      4  HN  STA M   4       1.726   1.343  19.184  1.00  0.00     0.163 HD
ENDROOT
BRANCH   3   5
HETATM    5  CA  STA M   4       0.762   2.519  20.748  1.00 34.45     0.085 C 
BRANCH   5   6
HETATM    6  CB  STA M   4       0.583   1.242  21.591  1.00 35.26     0.040 C 
BRANCH   6   7
HETATM    7  CG  STA M   4      -0.883   0.836  21.459  1.00 36.77    -0.020 C 
HETATM    8  CD1 STA M   4      -1.189  -0.402  22.265  1.00 35.37     0.009 C 
HETATM    9  CD2 STA M   4      -1.389   0.659  20.022  1.00 37.75     0.009 C 
ENDBRANCH   6   7
ENDBRANCH   5   6
BRANCH   5  10
HETATM   10  CH ASTA M   4       1.706   3.523  21.438  0.50 35.82     0.150 C 
BRANCH  10  11
HETATM   11  OH ASTA M   4       2.038   3.083  22.745  0.50 41.95    -0.393 OA
ATOM     12  HH ASTA M   4       2.620   3.702  23.170  1.00  0.00     0.210 HD
ENDBRANCH  10  11
BRANCH  10  13
HETATM   13  CM ASTA M   4       2.980   3.790  20.645  0.50 34.53     0.060 C 
BRANCH  13  14
HETATM   14  C  ASTA M   4       3.996   4.711  21.295  0.50 36.22     0.166 C 
BRANCH  14  15
HETATM   15  O  ASTA M   4       3.976   6.086  20.983  0.50 37.14    -0.401 OA
ATOM     16  H  ASTA M   4       4.612   6.663  21.390  1.00  0.00     0.209 HD
ENDBRANCH  14  15
ENDBRANCH  13  14
ENDBRANCH  10  13
ENDBRANCH   5  10
BRANCH   5  17
HETATM   17  CH BSTA M   4       1.822   3.558  21.067  0.50 34.81     0.150 C 
BRANCH  17  18
HETATM   18  OH BSTA M   4       1.672   4.067  22.379  0.50 41.78    -0.393 OA
ATOM     19  HH BSTA M   4       2.335   4.717  22.579  1.00  0.00     0.210 HD
ENDBRANCH  17  18
BRANCH  17  20
HETATM   20  CM BSTA M   4       3.159   2.889  20.841  0.50 33.70     0.060 C 
BRANCH  20  21
HETATM   21  C  BSTA M   4       3.930   3.056  19.543  0.50 33.30     0.166 C 
BRANCH  21  22
HETATM   22  O  BSTA M   4       4.887   2.070  19.299  0.50 31.97    -0.401 OA
ATOM     23  H  BSTA M   4       5.369   2.174  18.487  1.00  0.00     0.209 HD
ENDBRANCH  21  22
ENDBRANCH  20  21
ENDBRANCH  17  20
ENDBRANCH   5  17
ENDBRANCH   3   5
BRANCH   1  24
ATOM     24  CA  VAL M   3       0.971   2.693  16.962  1.00 22.88     0.180 C 
BRANCH  24  25
ATOM     25  N   VAL M   3      -0.244   2.836  16.215  1.00 22.87    -0.346 N 
ATOM     26  C   VAL M   2      -0.712   1.915  15.387  1.00 20.50     0.249 C 
ATOM     27  O   VAL M   2      -0.068   0.905  15.099  1.00 16.63    -0.271 OA
ATOM     28  HN  VAL M   3      -0.779   3.697  16.328  1.00  0.00     0.163 HD
BRANCH  26  29
ATOM     29  CA  VAL M   2      -2.065   2.227  14.705  1.00 21.19     0.278 C 
BRANCH  29  30
ATOM     30  N   VAL M   2      -1.824   2.195  13.265  1.00 26.85    -0.066 N 
ATOM     31  HN3 VAL M   2      -1.071   2.815  12.968  1.00  0.00     0.275 HD
ATOM     32  HN2 VAL M   2      -1.404   1.322  12.946  1.00  0.00     0.275 HD
ATOM     33  HN1 VAL M   2      -2.716   2.401  12.815  1.00  0.00     0.275 HD
ENDBRANCH  29  30
BRANCH  29  34
ATOM     34  CB  VAL M   2      -3.360   1.558  15.247  1.00 23.85     0.017 C 
ATOM     35  CG1 VAL M   2      -4.289   0.893  14.201  1.00 29.73     0.012 C 
ATOM     36  CG2 VAL M   2      -3.118   0.678  16.509  1.00 23.75     0.012 C 
ENDBRANCH  29  34
ENDBRANCH  26  29
ENDBRANCH  24  25
BRANCH  24  37
ATOM     37  CB  VAL M   3       2.005   3.815  16.491  1.00 27.90     0.009 C 
ATOM     38  CG1 VAL M   3       3.407   3.635  17.134  1.00 29.90     0.012 C 
ATOM     39  CG2 VAL M   3       2.088   3.861  14.957  1.00 27.82     0.012 C 
ENDBRANCH  24  37
ENDBRANCH   1  24
TORSDOF 19
