REMARK  15 active torsions:
REMARK  status: ('A' for Active; 'I' for Inactive)
REMARK    1  A    between atoms: C1_1  and  O5_5 
REMARK    2  A    between atoms: O5_5  and  C6_6 
REMARK       I    between atoms: C6_6  and  N8_8 
REMARK    3  A    between atoms: N8_8  and  C9_10 
REMARK    4  A    between atoms: C9_10  and  C10_11 
REMARK    5  A    between atoms: C9_10  and  C17_18 
REMARK    6  A    between atoms: C10_11  and  C11_12 
REMARK    7  A    between atoms: C17_18  and  O18_19 
REMARK    8  A    between atoms: C17_18  and  C19_21 
REMARK    9  A    between atoms: C19_21  and  C20_22 
REMARK   10  A    between atoms: C20_22  and  C21_23 
REMARK   11  A    between atoms: C20_22  and  C28_30 
REMARK   12  A    between atoms: C21_23  and  C22_24 
REMARK       I    between atoms: C28_30  and  N30_32 
REMARK   13  A    between atoms: N30_32  and  C31_34 
REMARK   14  A    between atoms: C31_34  and  C32_35 
REMARK   15  A    between atoms: C31_34  and  C35_38 
ROOT
HETATM    1  C20 IM1 B 600      58.172   4.048  19.082  1.00 14.60     0.084 C 
ENDROOT
BRANCH   1   2
HETATM    2  C19 IM1 B 600      59.463   3.605  19.669  1.00  8.92     0.048 C 
BRANCH   2   3
HETATM    3  C17 IM1 B 600      60.395   4.643  20.295  1.00 12.93     0.142 C 
BRANCH   3   4
HETATM    4  C9  IM1 B 600      59.803   5.145  21.607  1.00 15.38     0.119 C 
BRANCH   4   5
HETATM    5  N8  IM1 B 600      59.924   4.145  22.621  1.00 26.76    -0.329 N 
HETATM    6  C6  IM1 B 600      59.125   3.988  23.659  1.00 29.91     0.361 C 
HETATM    7  O7  IM1 B 600      58.167   4.749  23.807  1.00 31.37    -0.238 OA
ATOM      8  H8  IM1 B 600      60.702   3.491  22.533  1.00  0.00     0.165 HD
BRANCH   6   9
HETATM    9  O5  IM1 B 600      59.371   2.940  24.568  1.00 36.53    -0.294 OA
BRANCH   9  10
HETATM   10  C1  IM1 B 600      58.777   1.655  24.739  1.00 39.66     0.061 C 
HETATM   11  C2  IM1 B 600      59.751   0.770  25.532  1.00 40.54     0.046 C 
HETATM   12  C3  IM1 B 600      58.711   1.137  23.295  1.00 42.17     0.046 C 
HETATM   13  C4  IM1 B 600      57.428   1.433  25.464  1.00 36.19     0.046 C 
ENDBRANCH   9  10
ENDBRANCH   6   9
ENDBRANCH   4   5
BRANCH   4  14
HETATM   14  C10 IM1 B 600      60.496   6.327  22.213  1.00 12.98     0.066 C 
BRANCH  14  15
HETATM   15  C11 IM1 B 600      59.842   7.555  21.671  1.00 18.40    -0.056 A 
HETATM   16  C12 IM1 B 600      59.007   7.435  20.566  1.00 18.76     0.007 A 
HETATM   17  C13 IM1 B 600      58.421   8.585  20.046  1.00 27.80     0.001 A 
HETATM   18  C14 IM1 B 600      58.682   9.845  20.648  1.00 29.10     0.000 A 
HETATM   19  C15 IM1 B 600      59.521   9.939  21.765  1.00 23.02     0.001 A 
HETATM   20  C16 IM1 B 600      60.103   8.791  22.280  1.00 18.59     0.007 A 
ENDBRANCH  14  15
ENDBRANCH   4  14
ENDBRANCH   3   4
BRANCH   3  21
HETATM   21  O18 IM1 B 600      61.669   4.167  20.728  1.00 13.95    -0.393 OA
ATOM     22  H18 IM1 B 600      62.033   4.949  21.126  1.00  0.00     0.210 HD
ENDBRANCH   3  21
ENDBRANCH   2   3
ENDBRANCH   1   2
BRANCH   1  23
HETATM   23  C21 IM1 B 600      58.164   4.215  17.538  1.00 19.27     0.052 C 
BRANCH  23  24
HETATM   24  C22 IM1 B 600      58.250   5.667  17.162  1.00 22.95    -0.057 A 
HETATM   25  C23 IM1 B 600      59.377   6.158  16.487  1.00 24.72     0.007 A 
HETATM   26  C24 IM1 B 600      59.416   7.501  16.109  1.00 29.77     0.001 A 
HETATM   27  C25 IM1 B 600      58.336   8.344  16.409  1.00 32.69     0.000 A 
HETATM   28  C26 IM1 B 600      57.211   7.830  17.092  1.00 30.22     0.001 A 
HETATM   29  C27 IM1 B 600      57.169   6.490  17.469  1.00 23.45     0.007 A 
ENDBRANCH  23  24
ENDBRANCH   1  23
BRANCH   1  30
HETATM   30  C28 IM1 B 600      57.029   3.117  19.354  1.00 12.35     0.222 C 
HETATM   31  O29 IM1 B 600      55.929   3.059  18.810  1.00  8.82    -0.273 OA
HETATM   32  N30 IM1 B 600      57.389   2.336  20.309  1.00 12.71    -0.349 N 
ATOM     33  H30 IM1 B 600      58.309   2.408  20.745  1.00  0.00     0.163 HD
BRANCH  32  34
HETATM   34  C31 IM1 B 600      56.444   1.379  20.717  1.00 17.41     0.155 C 
BRANCH  34  35
HETATM   35  C32 IM1 B 600      55.292   2.263  21.246  1.00 15.27     0.007 C 
HETATM   36  C33 IM1 B 600      54.064   1.567  21.687  1.00 19.84     0.012 C 
HETATM   37  C34 IM1 B 600      55.950   3.008  22.404  1.00 14.27     0.012 C 
ENDBRANCH  34  35
BRANCH  34  38
HETATM   38  C35 IM1 B 600      56.290   0.560  19.479  1.00 15.39     0.104 A 
HETATM   39  N36 IM1 B 600      55.244   0.154  18.852  1.00 18.67    -0.353 N 
HETATM   40  C37 IM1 B 600      55.760  -0.794  18.015  1.00 20.60     0.106 A 
ATOM     41  H36 IM1 B 600      54.277   0.461  18.953  1.00  0.00     0.166 HD
HETATM   42  C38 IM1 B 600      57.124  -0.881  18.203  1.00 20.53     0.106 A 
HETATM   43  N39 IM1 B 600      57.437   0.025  19.170  1.00 18.40    -0.353 N 
ATOM     44  H39 IM1 B 600      58.355   0.236  19.562  1.00  0.00     0.166 HD
ENDBRANCH  34  38
ENDBRANCH  32  34
ENDBRANCH   1  30
TORSDOF 15
