REMARK  27 active torsions:
REMARK  status: ('A' for Active; 'I' for Inactive)
REMARK    1  A    between atoms: CA@A_1  and  C@A_3 
REMARK    2  A    between atoms: CA@A_1  and  O9@A_28 
REMARK    3  A    between atoms: CA5@A_2  and  C50@A_41 
REMARK    4  A    between atoms: CA5@A_2  and  O59@A_62 
REMARK    5  A    between atoms: C1@A_8  and  N1@A_9 
REMARK    6  A    between atoms: C1@A_8  and  C3@A_17 
REMARK    7  A    between atoms: C1@A_8  and  C2@A_13 
REMARK       I    between atoms: N1@A_9  and  C11@A_30 
REMARK    8  A    between atoms: O1@A_11  and  C2@A_13 
REMARK    9  A    between atoms: C2@A_13  and  C52@A_47 
REMARK   10  A    between atoms: N2@A_14  and  C10@A_29 
REMARK       I    between atoms: N2@A_14  and  C19@A_38 
REMARK   11  A    between atoms: C3@A_17  and  C4@A_18 
REMARK   12  A    between atoms: N4@A_19  and  C18@A_37 
REMARK       I    between atoms: N4@A_19  and  C31@A_40 
REMARK   13  A    between atoms: O9@A_28  and  C31@A_40 
REMARK   14  A    between atoms: C10@A_29  and  C11@A_30 
REMARK   15  A    between atoms: C10@A_29  and  C12@A_31 
REMARK   16  A    between atoms: C18@A_37  and  C19@A_38 
REMARK   17  A    between atoms: C51@A_42  and  C52@A_47 
REMARK   18  A    between atoms: C51@A_42  and  C53@A_51 
REMARK   19  A    between atoms: C51@A_42  and  N51@A_43 
REMARK       I    between atoms: N51@A_43  and  C61@A_64 
REMARK   20  A    between atoms: O51@A_45  and  C52@A_47 
REMARK   21  A    between atoms: N52@A_48  and  C60@A_63 
REMARK       I    between atoms: N52@A_48  and  C69@A_72 
REMARK   22  A    between atoms: C53@A_51  and  C54@A_52 
REMARK   23  A    between atoms: N54@A_53  and  C68@A_71 
REMARK       I    between atoms: N54@A_53  and  C81@A_74 
REMARK   24  A    between atoms: O59@A_62  and  C81@A_74 
REMARK   25  A    between atoms: C60@A_63  and  C61@A_64 
REMARK   26  A    between atoms: C60@A_63  and  C62@A_65 
REMARK   27  A    between atoms: C68@A_71  and  C69@A_72 
ROOT
HETATM    1  C2 A3TL A 101      18.814   1.662   0.044  0.50 18.16     0.171 C 
ENDROOT
BRANCH   1   2
HETATM    2  C1 A3TL A 101      18.629   0.798  -1.209  0.50 17.44     0.120 C 
BRANCH   2   3
HETATM    3  N1 A3TL A 101      18.422  -0.619  -0.879  0.50 14.55    -0.352 N 
HETATM    4  C11A3TL A 101      17.244  -1.124  -0.485  0.50 13.09     0.241 C 
HETATM    5  O2 A3TL A 101      16.268  -0.420  -0.244  0.50 13.61    -0.271 OA
ATOM      6  H1 A3TL A 101      19.217  -1.253  -0.953  1.00  0.00     0.163 HD
BRANCH   4   7
HETATM    7  C10A3TL A 101      17.164  -2.623  -0.334  0.50 13.44     0.180 C 
BRANCH   7   8
HETATM    8  N2 A3TL A 101      17.911  -3.313  -1.368  0.50 13.93    -0.346 N 
HETATM    9  C19A3TL A 101      17.889  -2.928  -2.648  0.50 14.66     0.240 C 
HETATM   10  O4 A3TL A 101      17.077  -2.121  -3.079  0.50 14.30    -0.271 OA
ATOM     11  H2 A3TL A 101      18.476  -4.122  -1.109  1.00  0.00     0.163 HD
BRANCH   9  12
HETATM   12  C18A3TL A 101      18.934  -3.560  -3.537  0.50 15.36     0.174 C 
HETATM   13  C20A3TL A 101      19.126  -2.714  -4.781  0.50 16.54     0.042 C 
BRANCH  12  14
HETATM   14  N4 A3TL A 101      18.661  -4.940  -3.899  0.50 14.88    -0.324 N 
HETATM   15  C31A3TL A 101      17.690  -5.210  -4.779  0.50 16.17     0.361 C 
HETATM   16  O8 A3TL A 101      17.105  -4.349  -5.397  0.50 13.59    -0.238 OA
ATOM     17  H4 A3TL A 101      19.206  -5.697  -3.487  1.00  0.00     0.165 HD
BRANCH  15  18
HETATM   18  O9 A3TL A 101      17.324  -6.585  -5.035  0.50 16.84    -0.299 OA
BRANCH  18  19
HETATM   19  CA A3TL A 101      16.892  -7.494  -4.004  0.50 17.91     0.219 C 
BRANCH  19  20
HETATM   20  C  A3TL A 101      16.344  -6.837  -2.740  0.50 18.01    -0.034 A 
HETATM   21  C13A3TL A 101      17.147  -6.786  -1.588  0.50 18.88     0.009 A 
HETATM   22  C14A3TL A 101      16.701  -6.184  -0.410  0.50 17.78     0.001 A 
HETATM   23  C15A3TL A 101      15.422  -5.640  -0.363  0.50 18.37     0.000 A 
HETATM   24  C16A3TL A 101      14.613  -5.680  -1.498  0.50 18.86     0.001 A 
HETATM   25  C17A3TL A 101      15.077  -6.277  -2.677  0.50 17.85     0.009 A 
ENDBRANCH  19  20
ENDBRANCH  18  19
ENDBRANCH  15  18
ENDBRANCH  12  14
ENDBRANCH   9  12
ENDBRANCH   7   8
BRANCH   7  26
HETATM   26  C12A3TL A 101      17.653  -3.121   1.040  0.50 14.14     0.009 C 
HETATM   27  CG1A3TL A 101      18.673  -4.249   0.921  0.50 14.59     0.012 C 
HETATM   28  CG2A3TL A 101      18.284  -2.011   1.862  0.50 12.06     0.012 C 
ENDBRANCH   7  26
ENDBRANCH   4   7
ENDBRANCH   2   3
BRANCH   2  29
HETATM   29  C3 A3TL A 101      17.487   1.379  -2.056  0.50 18.33     0.066 C 
BRANCH  29  30
HETATM   30  C4 A3TL A 101      17.612   0.942  -3.495  0.50 17.79    -0.056 A 
HETATM   31  C5 A3TL A 101      18.809   1.129  -4.192  0.50 18.96     0.007 A 
HETATM   32  C6 A3TL A 101      18.924   0.719  -5.525  0.50 20.19     0.001 A 
HETATM   33  C7 A3TL A 101      17.824   0.142  -6.166  0.50 19.47     0.000 A 
HETATM   34  C8 A3TL A 101      16.625  -0.028  -5.465  0.50 19.15     0.001 A 
HETATM   35  C9 A3TL A 101      16.515   0.360  -4.133  0.50 18.66     0.007 A 
ENDBRANCH  29  30
ENDBRANCH   2  29
ENDBRANCH   1   2
BRANCH   1  36
HETATM   36  O1 A3TL A 101      19.015   2.997  -0.339  0.50 19.08    -0.391 OA
ATOM     37  H1 A3TL A 101      19.832   3.065  -0.821  1.00  0.00     0.210 HD
ENDBRANCH   1  36
BRANCH   1  38
HETATM   38  C52A3TL A 101      17.632   1.663   1.018  0.50 17.81     0.171 C 
BRANCH  38  39
HETATM   39  C51A3TL A 101      17.850   2.407   2.327  0.50 19.18     0.120 C 
BRANCH  39  40
HETATM   40  C53A3TL A 101      19.113   3.257   2.122  0.50 21.51     0.066 C 
BRANCH  40  41
HETATM   41  C54A3TL A 101      19.189   4.461   3.028  0.50 23.32    -0.056 A 
HETATM   42  C55A3TL A 101      19.287   4.320   4.414  0.50 24.17     0.007 A 
HETATM   43  C56A3TL A 101      19.369   5.437   5.248  0.50 23.81     0.001 A 
HETATM   44  C57A3TL A 101      19.361   6.701   4.664  0.50 25.32     0.000 A 
HETATM   45  C58A3TL A 101      19.270   6.845   3.274  0.50 25.53     0.001 A 
HETATM   46  C59A3TL A 101      19.191   5.725   2.454  0.50 23.73     0.007 A 
ENDBRANCH  40  41
ENDBRANCH  39  40
BRANCH  39  47
HETATM   47  N51A3TL A 101      18.000   1.455   3.429  0.50 18.23    -0.352 N 
HETATM   48  C61A3TL A 101      18.945   0.517   3.536  0.50 17.43     0.241 C 
HETATM   49  O52A3TL A 101      19.785   0.323   2.677  0.50 15.39    -0.271 OA
ATOM     50  H51A3TL A 101      17.319   1.513   4.185  1.00  0.00     0.163 HD
BRANCH  48  51
HETATM   51  C60A3TL A 101      18.908  -0.318   4.795  0.50 17.59     0.180 C 
BRANCH  51  52
HETATM   52  N52A3TL A 101      18.959   0.534   5.977  0.50 18.41    -0.346 N 
HETATM   53  C69A3TL A 101      17.975   1.324   6.408  0.50 18.83     0.240 C 
HETATM   54  O54A3TL A 101      16.891   1.400   5.844  0.50 17.30    -0.271 OA
ATOM     55  H52A3TL A 101      19.822   0.525   6.521  1.00  0.00     0.163 HD
BRANCH  53  56
HETATM   56  C68A3TL A 101      18.298   2.156   7.638  0.50 18.83     0.174 C 
HETATM   57  C70A3TL A 101      17.964   1.378   8.903  0.50 18.86     0.042 C 
BRANCH  56  58
HETATM   58  N54A3TL A 101      17.564   3.401   7.621  0.50 20.23    -0.324 N 
HETATM   59  C81A3TL A 101      16.261   3.556   7.854  0.50 20.21     0.361 C 
HETATM   60  O58A3TL A 101      15.600   2.912   8.649  0.50 23.06    -0.238 OA
ATOM     61  H54A3TL A 101      18.095   4.246   7.409  1.00  0.00     0.165 HD
BRANCH  59  62
HETATM   62  O59A3TL A 101      15.597   4.580   7.093  0.50 20.81    -0.299 OA
BRANCH  62  63
HETATM   63  CA5A3TL A 101      16.291   5.465   6.204  0.50 21.39     0.219 C 
BRANCH  63  64
HETATM   64  C50A3TL A 101      15.355   6.333   5.390  0.50 21.65    -0.034 A 
HETATM   65  C63A3TL A 101      13.974   6.270   5.636  0.50 22.01     0.009 A 
HETATM   66  C64A3TL A 101      13.080   7.046   4.895  0.50 20.63     0.001 A 
HETATM   67  C65A3TL A 101      13.580   7.896   3.911  0.50 22.28     0.000 A 
HETATM   68  C66A3TL A 101      14.952   7.966   3.658  0.50 22.78     0.001 A 
HETATM   69  C67A3TL A 101      15.840   7.182   4.401  0.50 21.34     0.009 A 
ENDBRANCH  63  64
ENDBRANCH  62  63
ENDBRANCH  59  62
ENDBRANCH  56  58
ENDBRANCH  53  56
ENDBRANCH  51  52
BRANCH  51  70
HETATM   70  C62A3TL A 101      17.661  -1.203   4.855  0.50 19.58     0.009 C 
HETATM   71  CG5A3TL A 101      17.243  -1.531   6.291  0.50 18.69     0.012 C 
HETATM   72  CG6A3TL A 101      16.494  -0.557   4.123  0.50 18.63     0.012 C 
ENDBRANCH  51  70
ENDBRANCH  48  51
ENDBRANCH  39  47
ENDBRANCH  38  39
BRANCH  38  73
HETATM   73  O51A3TL A 101      16.569   2.321   0.366  0.50 16.89    -0.391 OA
ATOM     74  H51A3TL A 101      16.913   2.644  -0.459  1.00  0.00     0.210 HD
ENDBRANCH  38  73
ENDBRANCH   1  38
TORSDOF 27
