          AutoDock 4.2 Release 4.2.6   
         (C) 1989-2012 The Scripps Research Institute
        AutoDock comes with ABSOLUTELY NO WARRANTY.
        AutoDock is free software, and you are welcome
        to redistribute it under certain conditions;
        for details type 'autodock4 -C'

                     main.cc  $Revision: 1.213 $

                   Compiled on Jul 18 2014 at 15:34:58


This file was created at:			11:35 35" p.m., 11/24/2025
                   on host:		"LAPTOP-PFTQOH6G"
Current Working Directory = "C:\Program Files (x86)\Docking\November 25\2411 Docking\2R5P"

      ________________________________________________________________

                   SETTING UP DEFAULT PARAMETER LIBRARY
      ________________________________________________________________


Random number generator was seeded with values 21672, 1764016535.
Docking parameter file (DPF) used for this docking:		dock.dpf
DPF> autodock_parameter_version 4.2       # used by autodock to validate parameter set

	Autodock parameter version 4.2.
DPF> outlev 1                             # diagnostic output level

Output Level = 1  ADT-COMPATIBLE OUTPUT DURING DOCKING.
DPF> intelec                              # calculate internal electrostatics

Electrostatic energies will be calculated for all non-bonds between moving atoms.
DPF> seed pid time                        # seeds for random generator

Random number generator was seeded with values 21672, 1764016535.
DPF> ligand_types A C HD OA N             # atoms types in ligand

DPF> fld 2r5p.maps.fld                    # grid_data_file

Opening Grid Map Dimensions file:		2r5p.maps.fld
Grid Point Spacing =				0.375 Angstroms

Even Number of User-specified Grid Points =	28 x-points
						44 y-points
						30 z-points

Coordinates of Central Grid Point of Maps =	(28.934, -11.022, -0.187)
Macromolecule file used to create Grid Maps =	2r5p.pdbqt
Grid Parameter file used to create Grid Maps =	grid.gpf
Minimum coordinates in grid = (23.684, -19.272, -5.812)
Maximum coordinates in grid = (34.184, -2.772, 5.438)

DPF> map 2r5p.A.map                       # atom-specific affinity map

DPF> map 2r5p.C.map                       # atom-specific affinity map

DPF> map 2r5p.HD.map                      # atom-specific affinity map

DPF> map 2r5p.OA.map                      # atom-specific affinity map

DPF> map 2r5p.N.map                       # atom-specific affinity map

DPF> elecmap 2r5p.e.map                   # electrostatics map

DPF> desolvmap 2r5p.d.map                 # desolvation map

DPF> move lig2r5p.pdbqt                   # small molecule

1,4-interactions will be _ignored_ in the non-bonded internal energy calculation.

Ligand PDBQT file = "lig2r5p.pdbqt"

INPUT LIGAND PDBQT FILE:
________________________

INPUT-LIGAND-PDBQT: REMARK  14 active torsions:
INPUT-LIGAND-PDBQT: REMARK  status: ('A' for Active; 'I' for Inactive)
INPUT-LIGAND-PDBQT: REMARK    1  A    between atoms: N1_2  and  C31_45 
INPUT-LIGAND-PDBQT: REMARK    2  A    between atoms: C2_4  and  C3_9 
INPUT-LIGAND-PDBQT: REMARK    3  A    between atoms: N2_5  and  C4_12 
INPUT-LIGAND-PDBQT: REMARK       I    between atoms: N2_5  and  C3_9 
INPUT-LIGAND-PDBQT: REMARK    4  A    between atoms: O2_7  and  C11_25 
INPUT-LIGAND-PDBQT: REMARK    5  A    between atoms: N3_10  and  C10_24 
INPUT-LIGAND-PDBQT: REMARK    6  A    between atoms: N4_13  and  C22_36 
INPUT-LIGAND-PDBQT: REMARK       I    between atoms: N4_13  and  C21_35 
INPUT-LIGAND-PDBQT: REMARK    7  A    between atoms: O4_15  and  C23_37 
INPUT-LIGAND-PDBQT: REMARK    8  A    between atoms: C10_24  and  C11_25 
INPUT-LIGAND-PDBQT: REMARK    9  A    between atoms: C11_25  and  C12_26 
INPUT-LIGAND-PDBQT: REMARK   10  A    between atoms: C12_26  and  C13_27 
INPUT-LIGAND-PDBQT: REMARK   11  A    between atoms: C13_27  and  C14_28 
INPUT-LIGAND-PDBQT: REMARK   12  A    between atoms: C13_27  and  C21_35 
INPUT-LIGAND-PDBQT: REMARK   13  A    between atoms: C14_28  and  C15_29 
INPUT-LIGAND-PDBQT: REMARK   14  A    between atoms: C31_45  and  C32_46 
INPUT-LIGAND-PDBQT: ROOT
INPUT-LIGAND-PDBQT: HETATM    1  C11 MK1 B 902      28.603 -13.204  -1.640  1.00 25.87     0.147 C 
INPUT-LIGAND-PDBQT: ENDROOT
INPUT-LIGAND-PDBQT: BRANCH   1   2
INPUT-LIGAND-PDBQT: HETATM    2  O2  MK1 B 902      28.207 -14.383  -2.353  1.00 26.04    -0.394 OA
INPUT-LIGAND-PDBQT: ATOM      3  H2  MK1 B 902      28.379 -15.105  -1.760  1.00  0.00     0.210 HD
INPUT-LIGAND-PDBQT: ENDBRANCH   1   2
INPUT-LIGAND-PDBQT: BRANCH   1   4
INPUT-LIGAND-PDBQT: HETATM    4  C10 MK1 B 902      28.323 -12.032  -2.604  1.00 25.91     0.305 C 
INPUT-LIGAND-PDBQT: BRANCH   4   5
INPUT-LIGAND-PDBQT: HETATM    5  N3  MK1 B 902      27.875 -10.829  -1.852  1.00 27.05     0.108 N 
INPUT-LIGAND-PDBQT: HETATM    6  C2  MK1 B 902      28.498  -9.529  -2.401  1.00 26.64     0.342 C 
INPUT-LIGAND-PDBQT: HETATM    7  C1  MK1 B 902      27.929  -8.393  -1.544  1.00 29.61     0.318 C 
INPUT-LIGAND-PDBQT: HETATM    8  N1  MK1 B 902      26.436  -8.312  -1.583  1.00 31.00     0.097 N 
INPUT-LIGAND-PDBQT: HETATM    9  C9  MK1 B 902      25.892  -9.605  -1.130  1.00 27.88     0.303 C 
INPUT-LIGAND-PDBQT: HETATM   10  C8  MK1 B 902      26.390 -10.817  -1.915  1.00 27.31     0.303 C 
INPUT-LIGAND-PDBQT: BRANCH   6  11
INPUT-LIGAND-PDBQT: HETATM   11  C3  MK1 B 902      30.020  -9.505  -2.295  1.00 28.38     0.253 C 
INPUT-LIGAND-PDBQT: HETATM   12  O1  MK1 B 902      30.550  -9.894  -1.247  1.00 28.37    -0.271 OA
INPUT-LIGAND-PDBQT: HETATM   13  N2  MK1 B 902      30.694  -9.048  -3.373  1.00 27.78    -0.351 N 
INPUT-LIGAND-PDBQT: ATOM     14  H2  MK1 B 902      30.134  -8.750  -4.172  1.00  0.00     0.163 HD
INPUT-LIGAND-PDBQT: BRANCH  13  15
INPUT-LIGAND-PDBQT: HETATM   15  C4  MK1 B 902      32.151  -8.938  -3.510  1.00 28.96     0.022 C 
INPUT-LIGAND-PDBQT: HETATM   16  C5  MK1 B 902      32.365  -8.349  -4.903  1.00 25.79     0.037 C 
INPUT-LIGAND-PDBQT: HETATM   17  C6  MK1 B 902      32.786 -10.321  -3.448  1.00 26.52     0.037 C 
INPUT-LIGAND-PDBQT: HETATM   18  C7  MK1 B 902      32.752  -7.974  -2.480  1.00 28.69     0.037 C 
INPUT-LIGAND-PDBQT: ENDBRANCH  13  15
INPUT-LIGAND-PDBQT: ENDBRANCH   6  11
INPUT-LIGAND-PDBQT: BRANCH   8  19
INPUT-LIGAND-PDBQT: HETATM   19  C31 MK1 B 902      25.949  -7.187  -0.753  1.00 33.52     0.312 C 
INPUT-LIGAND-PDBQT: BRANCH  19  20
INPUT-LIGAND-PDBQT: HETATM   20  C32 MK1 B 902      26.392  -5.776  -1.076  1.00 37.83    -0.015 A 
INPUT-LIGAND-PDBQT: HETATM   21  C33 MK1 B 902      25.980  -5.146  -2.268  1.00 38.47     0.096 A 
INPUT-LIGAND-PDBQT: HETATM   22  N5  MK1 B 902      26.333  -3.839  -2.670  1.00 41.93    -0.375 N 
INPUT-LIGAND-PDBQT: HETATM   23  C34 MK1 B 902      27.167  -3.209  -1.721  1.00 41.80     0.087 A 
INPUT-LIGAND-PDBQT: ATOM     24  H5  MK1 B 902      26.023  -3.404  -3.539  1.00  0.00     0.164 HD
INPUT-LIGAND-PDBQT: HETATM   25  C35 MK1 B 902      27.626  -3.753  -0.511  1.00 40.13     0.018 A 
INPUT-LIGAND-PDBQT: HETATM   26  C36 MK1 B 902      27.230  -5.063  -0.181  1.00 38.81     0.011 A 
INPUT-LIGAND-PDBQT: ENDBRANCH  19  20
INPUT-LIGAND-PDBQT: ENDBRANCH   8  19
INPUT-LIGAND-PDBQT: ENDBRANCH   4   5
INPUT-LIGAND-PDBQT: ENDBRANCH   1   4
INPUT-LIGAND-PDBQT: BRANCH   1  27
INPUT-LIGAND-PDBQT: HETATM   27  C12 MK1 B 902      30.094 -13.364  -1.256  1.00 25.95     0.047 C 
INPUT-LIGAND-PDBQT: BRANCH  27  28
INPUT-LIGAND-PDBQT: HETATM   28  C13 MK1 B 902      30.380 -14.522  -0.278  1.00 25.07     0.084 C 
INPUT-LIGAND-PDBQT: BRANCH  28  29
INPUT-LIGAND-PDBQT: HETATM   29  C14 MK1 B 902      31.903 -14.603   0.004  1.00 26.77     0.052 C 
INPUT-LIGAND-PDBQT: BRANCH  29  30
INPUT-LIGAND-PDBQT: HETATM   30  C15 MK1 B 902      32.271 -15.711   0.975  1.00 27.20    -0.057 A 
INPUT-LIGAND-PDBQT: HETATM   31  C16 MK1 B 902      31.959 -17.073   0.712  1.00 25.34     0.007 A 
INPUT-LIGAND-PDBQT: HETATM   32  C17 MK1 B 902      32.294 -18.088   1.628  1.00 27.72     0.001 A 
INPUT-LIGAND-PDBQT: HETATM   33  C18 MK1 B 902      32.953 -17.725   2.830  1.00 29.32     0.000 A 
INPUT-LIGAND-PDBQT: HETATM   34  C19 MK1 B 902      33.269 -16.376   3.101  1.00 28.64     0.001 A 
INPUT-LIGAND-PDBQT: HETATM   35  C20 MK1 B 902      32.929 -15.361   2.176  1.00 27.00     0.007 A 
INPUT-LIGAND-PDBQT: ENDBRANCH  29  30
INPUT-LIGAND-PDBQT: ENDBRANCH  28  29
INPUT-LIGAND-PDBQT: BRANCH  28  36
INPUT-LIGAND-PDBQT: HETATM   36  C21 MK1 B 902      29.630 -14.311   1.047  1.00 25.25     0.222 C 
INPUT-LIGAND-PDBQT: HETATM   37  O3  MK1 B 902      29.568 -13.230   1.644  1.00 26.56    -0.273 OA
INPUT-LIGAND-PDBQT: HETATM   38  N4  MK1 B 902      29.060 -15.420   1.520  1.00 25.27    -0.350 N 
INPUT-LIGAND-PDBQT: ATOM     39  H4  MK1 B 902      28.889 -16.186   0.868  1.00  0.00     0.163 HD
INPUT-LIGAND-PDBQT: BRANCH  38  40
INPUT-LIGAND-PDBQT: HETATM   40  C22 MK1 B 902      28.676 -15.600   2.880  1.00 23.88     0.147 C 
INPUT-LIGAND-PDBQT: HETATM   41  C23 MK1 B 902      28.985 -16.960   3.479  1.00 23.26     0.149 C 
INPUT-LIGAND-PDBQT: HETATM   42  C24 MK1 B 902      28.011 -17.106   4.618  1.00 22.90     0.073 C 
INPUT-LIGAND-PDBQT: HETATM   43  C25 MK1 B 902      26.780 -16.338   4.189  1.00 24.80    -0.047 A 
INPUT-LIGAND-PDBQT: HETATM   44  C26 MK1 B 902      25.422 -16.375   4.614  1.00 23.86     0.008 A 
INPUT-LIGAND-PDBQT: HETATM   45  C30 MK1 B 902      27.190 -15.431   3.137  1.00 24.42    -0.027 A 
INPUT-LIGAND-PDBQT: HETATM   46  C27 MK1 B 902      24.497 -15.516   4.004  1.00 24.12     0.001 A 
INPUT-LIGAND-PDBQT: HETATM   47  C28 MK1 B 902      24.865 -14.625   2.983  1.00 25.01     0.001 A 
INPUT-LIGAND-PDBQT: HETATM   48  C29 MK1 B 902      26.205 -14.593   2.566  1.00 25.20     0.010 A 
INPUT-LIGAND-PDBQT: BRANCH  41  49
INPUT-LIGAND-PDBQT: HETATM   49  O4  MK1 B 902      28.800 -18.005   2.513  1.00 20.27    -0.393 OA
INPUT-LIGAND-PDBQT: ATOM     50  H4  MK1 B 902      28.993 -18.856   2.888  1.00  0.00     0.210 HD
INPUT-LIGAND-PDBQT: ENDBRANCH  41  49
INPUT-LIGAND-PDBQT: ENDBRANCH  38  40
INPUT-LIGAND-PDBQT: ENDBRANCH  28  36
INPUT-LIGAND-PDBQT: ENDBRANCH  27  28
INPUT-LIGAND-PDBQT: ENDBRANCH   1  27
INPUT-LIGAND-PDBQT: TORSDOF 14
________________________________________________________________________________

Total charge on ligand                               =	+2.000 e
REMARK  14 active torsions:
REMARK  status: ('A' for Active; 'I' for Inactive)
REMARK    1  A    between atoms: N1_2  and  C31_45 
REMARK    2  A    between atoms: C2_4  and  C3_9 
REMARK    3  A    between atoms: N2_5  and  C4_12 
REMARK       I    between atoms: N2_5  and  C3_9 
REMARK    4  A    between atoms: O2_7  and  C11_25 
REMARK    5  A    between atoms: N3_10  and  C10_24 
REMARK    6  A    between atoms: N4_13  and  C22_36 
REMARK       I    between atoms: N4_13  and  C21_35 
REMARK    7  A    between atoms: O4_15  and  C23_37 
REMARK    8  A    between atoms: C10_24  and  C11_25 
REMARK    9  A    between atoms: C11_25  and  C12_26 
REMARK   10  A    between atoms: C12_26  and  C13_27 
REMARK   11  A    between atoms: C13_27  and  C14_28 
REMARK   12  A    between atoms: C13_27  and  C21_35 
REMARK   13  A    between atoms: C14_28  and  C15_29 
REMARK   14  A    between atoms: C31_45  and  C32_46 


Number of Rotatable Bonds in Small Molecule =	14 torsions
Number of atoms in ligand:  50

Number of non-hydrogen atoms in ligand:  45

Number of vibrational degrees of freedom of ligand:  144


Number of torsional degrees of freedom = 14
Estimated loss of torsional free energy upon binding = +4.1762 kcal/mol


DPF> about 28.886 -12.075 -0.082            # small molecule center

Small molecule center of rotation =	(+28.886, -12.075, -0.082)

DPF> tran0 random                         # initial coordinates/A or random

Initial translation =			(29.974, -11.109, -1.706) Angstroms
DPF> quaternion0 random                   # initial orientation

Each run will begin with a new, random initial orientation.
Initial quaternion,  (x,y,z,w) =	( -0.708, -0.195, 0.600, 0.317 ),
DPF> dihe0 random                         # initial dihedrals (relative) or random

DPF> torsdof 14                            # torsional degrees of freedom

Number of torsional degrees of freedom = 14
Free energy coefficient for torsional degrees of freedom = 0.2983, the factory default value.

Estimated loss of torsional free energy upon binding = +4.1762 kcal/mol

DPF> rmstol 2.0                           # cluster_tolerance/A

Maximum RMS tolerance for conformational cluster analysis = 2.00 Angstroms
DPF> extnrg 1000.0                        # external grid energy

External grid energy (beyond grid map walls) = 1000.00

DPF> e0max 0.0 10000                      # max initial energy; max number of retries

Using user-specified maximum number of retries for simanneal initialization, 10000 retries.
If the simanneal initial energy is greater than e0max, 0.000,
then a new, random initial state will be created.

DPF> ga_pop_size 150                      # number of individuals in population

A population of 150 individuals will be used
DPF> ga_num_evals 2500000                 # maximum number of energy evaluations

There will be at most 2500000 function evaluations used.
DPF> ga_num_generations 27000             # maximum number of generations

The GA will run for at most 27000 generations.
DPF> ga_elitism 1                         # number of top individuals to survive to next generation

The 1 best will be preserved each GA generation.
DPF> ga_mutation_rate 0.02                # rate of gene mutation

The mutation rate is 0.020000.
DPF> ga_crossover_rate 0.8                # rate of crossover

The crossover rate is 0.800000.
DPF> ga_window_size 10                    # 

The GA's selection window is 10 generations.
DPF> ga_cauchy_alpha 0.0                  # Alpha parameter of Cauchy distribution

The alpha parameter (for the Cauchy distribution) is being set to 0.000000.
DPF> ga_cauchy_beta 1.0                   # Beta parameter Cauchy distribution

The beta parameter (for the Cauchy distribution) is being set to 1.000000.
DPF> set_ga                               # set the above parameters for GA or LGA

DPF> sw_max_its 300                       # iterations of Solis & Wets local search

Solis & Wets algorithms will perform at most 300 iterations.
DPF> sw_max_succ 4                        # consecutive successes before changing rho

Solis & Wets algorithms expand rho every 4 in a row successes.
DPF> sw_max_fail 4                        # consecutive failures before changing rho

Solis & Wets algorithms contract rho every 4 in a row failures.
DPF> sw_rho 1.0                           # size of local search space to sample

rho is set to 1.000000.
DPF> sw_lb_rho 0.01                       # lower bound on rho

rho will never get smaller than 0.010000.
DPF> ls_search_freq 0.06                  # probability of performing local search on individual

Local search will be performed with frequency 0.060000.
DPF> set_psw1                             # set the above pseudo-Solis & Wets parameters

Creating a new Local Search object using the pseudo-Solis-Wets algorithm (pSW1) with the current settings.

DPF> unbound_model bound                  # state of unbound ligand

DPF> ga_run 10                            # do this many hybrid GA-LS runs

centering ligand on specified point: 28.886 -12.075 -0.082
Furthest true ligand atom from "about" center is 9.764 Angstroms (maxrad).
Number of requested GA dockings = 10 runs
Unbound model to be used is 'same as bound' [AutoDock 4.2 default].

	BEGINNING GENETIC ALGORITHM DOCKING 1 of 10
Run: 1 Seed: 1071111471 2125964112 [ Run 1 of 10 GA/GALS ]
Beginning LAMARCKIAN GENETIC ALGORITHM (LGA), with a maximum of 2500000 energy evaluations.

Final-Value: -18.931


	FINAL GENETIC ALGORITHM DOCKED STATE
	_______________________________________________


Detailed state:  trans 29.026 -11.871 -0.530 quatxyzw -0.257561 0.359752 0.770555 -0.458787 center 28.886 -12.075 -0.082 ntor 14 -146.9232 153.0168 12.6539 -176.5756 163.5820 -37.4157 -178.7572 -111.6688 -130.9467 160.9508 -150.9510 -14.2095 -74.7451 -7.0693
State:	 29.026 -11.871  -0.530  -0.290  0.405  0.867 -125.382   -146.92  153.02   12.65 -176.58  163.58  -37.42 -178.76 -111.67 -130.95  160.95 -150.95  -14.21  -74.75   -7.07

DOCKED: MODEL        1
DOCKED: USER    Run = 1
DOCKED: USER    DPF = dock.dpf
DOCKED: USER  
DOCKED: USER    Estimated Free Energy of Binding    =  -11.50 kcal/mol  [=(1)+(2)+(3)-(4)]
DOCKED: USER    Estimated Inhibition Constant, Ki   =    3.69 nM (nanomolar)  [Temperature = 298.15 K]
DOCKED: USER    
DOCKED: USER    (1) Final Intermolecular Energy     =  -15.68 kcal/mol
DOCKED: USER        vdW + Hbond + desolv Energy     =  -13.79 kcal/mol
DOCKED: USER        Electrostatic Energy            =   -1.89 kcal/mol
DOCKED: USER    (2) Final Total Internal Energy     =   -3.25 kcal/mol
DOCKED: USER    (3) Torsional Free Energy           =   +4.18 kcal/mol
DOCKED: USER    (4) Unbound System's Energy  [=(2)] =   -3.25 kcal/mol
DOCKED: USER    
DOCKED: USER    
DOCKED: USER    NEWDPF move lig2r5p.pdbqt
DOCKED: USER    NEWDPF about 28.886000 -12.075000 -0.082000
DOCKED: USER    NEWDPF tran0 29.026360 -11.871248 -0.530136
DOCKED: USER    NEWDPF quaternion0 -0.257561 0.359752 0.770555 -0.458787
DOCKED: USER    NEWDPF axisangle0 -0.289868 0.404877 0.867209 -125.382325
DOCKED: USER    NEWDPF quat0 -0.289868 0.404877 0.867209 -125.382325
DOCKED: USER    NEWDPF dihe0 -146.92 153.02 12.65 -176.58 163.58 -37.42 -178.76 -111.67 -130.95 160.95 -150.95 -14.21 -74.75 -7.07 
DOCKED: USER  keepresnum = 1 
DOCKED: USER  
DOCKED: REMARK  14 active torsions:
DOCKED: REMARK  status: ('A' for Active; 'I' for Inactive)
DOCKED: REMARK    1  A    between atoms: N1_2  and  C31_45 
DOCKED: REMARK    2  A    between atoms: C2_4  and  C3_9 
DOCKED: REMARK    3  A    between atoms: N2_5  and  C4_12 
DOCKED: REMARK       I    between atoms: N2_5  and  C3_9 
DOCKED: REMARK    4  A    between atoms: O2_7  and  C11_25 
DOCKED: REMARK    5  A    between atoms: N3_10  and  C10_24 
DOCKED: REMARK    6  A    between atoms: N4_13  and  C22_36 
DOCKED: REMARK       I    between atoms: N4_13  and  C21_35 
DOCKED: REMARK    7  A    between atoms: O4_15  and  C23_37 
DOCKED: REMARK    8  A    between atoms: C10_24  and  C11_25 
DOCKED: REMARK    9  A    between atoms: C11_25  and  C12_26 
DOCKED: REMARK   10  A    between atoms: C12_26  and  C13_27 
DOCKED: REMARK   11  A    between atoms: C13_27  and  C14_28 
DOCKED: REMARK   12  A    between atoms: C13_27  and  C21_35 
DOCKED: REMARK   13  A    between atoms: C14_28  and  C15_29 
DOCKED: REMARK   14  A    between atoms: C31_45  and  C32_46 
DOCKED: USER                              x       y       z     vdW  Elec       q    Type
DOCKED: USER                           _______ _______ _______ _____ _____    ______ ____
DOCKED: ROOT
DOCKED: ATOM      1  C11 MK1 B 902      30.264 -12.889  -1.632 -0.28 -0.14    +0.147 C 
DOCKED: ENDROOT
DOCKED: BRANCH   1   2
DOCKED: ATOM      2  O2  MK1 B 902      31.541 -13.282  -2.152 -0.02 +0.41    -0.394 OA
DOCKED: ATOM      3  H2  MK1 B 902      31.354 -13.963  -2.788 -0.39 -0.49    +0.210 HD
DOCKED: ENDBRANCH   1   2
DOCKED: BRANCH   1   4
DOCKED: ATOM      4  C10 MK1 B 902      29.408 -14.173  -1.642 +0.01 -0.51    +0.305 C 
DOCKED: BRANCH   4   5
DOCKED: ATOM      5  N3  MK1 B 902      28.741 -14.370  -0.326 -0.33 -0.10    +0.108 N 
DOCKED: ATOM      6  C2  MK1 B 902      29.301 -13.429   0.761 -0.16 -0.11    +0.342 C 
DOCKED: ATOM      7  C1  MK1 B 902      28.507 -13.738   2.035 -0.18 -0.05    +0.318 C 
DOCKED: ATOM      8  N1  MK1 B 902      27.033 -13.536   1.879 -0.32 -0.02    +0.097 N 
DOCKED: ATOM      9  C9  MK1 B 902      26.565 -14.393   0.775 +0.01 -0.19    +0.303 C 
DOCKED: ATOM     10  C8  MK1 B 902      27.286 -14.173  -0.553 +0.14 -0.44    +0.303 C 
DOCKED: BRANCH   6  11
DOCKED: ATOM     11  C3  MK1 B 902      30.783 -13.656   1.042 -0.23 -0.03    +0.253 C 
DOCKED: ATOM     12  O1  MK1 B 902      31.519 -12.672   1.185 -0.50 -0.06    -0.271 OA
DOCKED: ATOM     13  N2  MK1 B 902      31.196 -14.941   1.113 -0.09 +0.07    -0.351 N 
DOCKED: ATOM     14  H2  MK1 B 902      30.486 -15.659   0.968 +0.06 -0.06    +0.163 HD
DOCKED: BRANCH  13  15
DOCKED: ATOM     15  C4  MK1 B 902      32.562 -15.406   1.377 -0.43 -0.00    +0.022 C 
DOCKED: ATOM     16  C5  MK1 B 902      32.543 -16.889   1.010 -0.40 +0.00    +0.037 C 
DOCKED: ATOM     17  C6  MK1 B 902      32.884 -15.261   2.859 -0.39 +0.00    +0.037 C 
DOCKED: ATOM     18  C7  MK1 B 902      33.590 -14.700   0.486 -0.51 -0.00    +0.037 C 
DOCKED: ENDBRANCH  13  15
DOCKED: ENDBRANCH   6  11
DOCKED: BRANCH   8  19
DOCKED: ATOM     19  C31 MK1 B 902      26.326 -13.831   3.146 +0.14 -0.03    +0.312 C 
DOCKED: BRANCH  19  20
DOCKED: ATOM     20  C32 MK1 B 902      26.572 -15.149   3.848 -0.42 +0.00    -0.015 A 
DOCKED: ATOM     21  C33 MK1 B 902      25.494 -15.964   4.250 -0.50 -0.01    +0.096 A 
DOCKED: ATOM     22  N5  MK1 B 902      25.607 -17.207   4.911 -0.22 +0.16    -0.375 N 
DOCKED: ATOM     23  C34 MK1 B 902      26.956 -17.560   5.131 -0.42 -0.04    +0.087 A 
DOCKED: ATOM     24  H5  MK1 B 902      24.811 -17.779   5.194 -0.33 -0.16    +0.164 HD
DOCKED: ATOM     25  C35 MK1 B 902      28.091 -16.818   4.766 -0.41 -0.00    +0.018 A 
DOCKED: ATOM     26  C36 MK1 B 902      27.895 -15.588   4.110 -0.39 -0.00    +0.011 A 
DOCKED: ENDBRANCH  19  20
DOCKED: ENDBRANCH   8  19
DOCKED: ENDBRANCH   4   5
DOCKED: ENDBRANCH   1   4
DOCKED: BRANCH   1  27
DOCKED: ATOM     27  C12 MK1 B 902      29.716 -11.757  -2.533 -0.37 -0.04    +0.047 C 
DOCKED: BRANCH  27  28
DOCKED: ATOM     28  C13 MK1 B 902      30.454 -10.410  -2.385 -0.31 -0.03    +0.084 C 
DOCKED: BRANCH  28  29
DOCKED: ATOM     29  C14 MK1 B 902      31.391 -10.192  -3.601 -0.37 -0.01    +0.052 C 
DOCKED: BRANCH  29  30
DOCKED: ATOM     30  C15 MK1 B 902      31.433  -8.748  -4.070 -0.33 +0.01    -0.057 A 
DOCKED: ATOM     31  C16 MK1 B 902      31.003  -8.369  -5.371 -0.43 -0.00    +0.007 A 
DOCKED: ATOM     32  C17 MK1 B 902      31.061  -7.029  -5.796 -0.43 -0.00    +0.001 A 
DOCKED: ATOM     33  C18 MK1 B 902      31.561  -6.054  -4.897 -0.40 -0.00    +0.000 A 
DOCKED: ATOM     34  C19 MK1 B 902      31.990  -6.418  -3.602 -0.40 -0.00    +0.001 A 
DOCKED: ATOM     35  C20 MK1 B 902      31.929  -7.768  -3.181 -0.41 -0.00    +0.007 A 
DOCKED: ENDBRANCH  29  30
DOCKED: ENDBRANCH  28  29
DOCKED: BRANCH  28  36
DOCKED: ATOM     36  C21 MK1 B 902      29.451  -9.248  -2.303 -0.19 -0.06    +0.222 C 
DOCKED: ATOM     37  O3  MK1 B 902      29.325  -8.509  -1.320 -0.19 +0.05    -0.273 OA
DOCKED: ATOM     38  N4  MK1 B 902      28.697  -9.116  -3.395 -0.09 +0.13    -0.350 N 
DOCKED: ATOM     39  H4  MK1 B 902      29.031  -9.539  -4.262 +0.01 -0.07    +0.163 HD
DOCKED: BRANCH  38  40
DOCKED: ATOM     40  C22 MK1 B 902      27.454  -8.421  -3.425 -0.22 -0.04    +0.147 C 
DOCKED: ATOM     41  C23 MK1 B 902      27.531  -6.946  -3.776 -0.23 -0.01    +0.149 C 
DOCKED: ATOM     42  C24 MK1 B 902      26.283  -6.347  -3.183 -0.27 +0.02    +0.073 C 
DOCKED: ATOM     43  C25 MK1 B 902      25.988  -7.180  -1.955 -0.29 -0.00    -0.047 A 
DOCKED: ATOM     44  C26 MK1 B 902      25.204  -6.940  -0.791 -0.35 +0.00    +0.008 A 
DOCKED: ATOM     45  C30 MK1 B 902      26.701  -8.431  -2.108 -0.26 +0.00    -0.027 A 
DOCKED: ATOM     46  C27 MK1 B 902      25.129  -7.935   0.193 -0.54 +0.00    +0.001 A 
DOCKED: ATOM     47  C28 MK1 B 902      25.808  -9.159   0.072 -0.35 -0.00    +0.001 A 
DOCKED: ATOM     48  C29 MK1 B 902      26.581  -9.390  -1.077 -0.34 -0.00    +0.010 A 
DOCKED: BRANCH  41  49
DOCKED: ATOM     49  O4  MK1 B 902      28.704  -6.341  -3.214 -0.05 +0.09    -0.393 OA
DOCKED: ATOM     50  H4  MK1 B 902      28.985  -6.800  -2.432 -0.43 -0.10    +0.210 HD
DOCKED: ENDBRANCH  41  49
DOCKED: ENDBRANCH  38  40
DOCKED: ENDBRANCH  28  36
DOCKED: ENDBRANCH  27  28
DOCKED: ENDBRANCH   1  27
DOCKED: TORSDOF 14
DOCKED: TER
DOCKED: ENDMDL
________________________________________________________________________________


	BEGINNING GENETIC ALGORITHM DOCKING 2 of 10
Run: 2 Seed: 1286436325 1062421033 [ Run 2 of 10 GA/GALS ]
Beginning LAMARCKIAN GENETIC ALGORITHM (LGA), with a maximum of 2500000 energy evaluations.

Final-Value: -17.511


	FINAL GENETIC ALGORITHM DOCKED STATE
	_______________________________________________


Detailed state:  trans 30.116 -12.768 0.837 quatxyzw 0.150459 0.168984 0.895534 -0.383179 center 28.886 -12.075 -0.082 ntor 14 -168.1564 159.4031 -113.3904 -25.7947 159.9128 -9.4249 -38.1578 -60.7653 37.5626 136.7917 180.0000 38.5113 -2.2008 126.5507
State:	 30.116 -12.768   0.837   0.163  0.183  0.970 -134.939   -168.16  159.40 -113.39  -25.79  159.91   -9.42  -38.16  -60.77   37.56  136.79  180.00   38.51   -2.20  126.55

DOCKED: MODEL        2
DOCKED: USER    Run = 2
DOCKED: USER    DPF = dock.dpf
DOCKED: USER  
DOCKED: USER    Estimated Free Energy of Binding    =  -10.53 kcal/mol  [=(1)+(2)+(3)-(4)]
DOCKED: USER    Estimated Inhibition Constant, Ki   =   19.22 nM (nanomolar)  [Temperature = 298.15 K]
DOCKED: USER    
DOCKED: USER    (1) Final Intermolecular Energy     =  -14.70 kcal/mol
DOCKED: USER        vdW + Hbond + desolv Energy     =  -13.38 kcal/mol
DOCKED: USER        Electrostatic Energy            =   -1.33 kcal/mol
DOCKED: USER    (2) Final Total Internal Energy     =   -2.81 kcal/mol
DOCKED: USER    (3) Torsional Free Energy           =   +4.18 kcal/mol
DOCKED: USER    (4) Unbound System's Energy  [=(2)] =   -2.81 kcal/mol
DOCKED: USER    
DOCKED: USER    
DOCKED: USER    NEWDPF move lig2r5p.pdbqt
DOCKED: USER    NEWDPF about 28.886000 -12.075000 -0.082000
DOCKED: USER    NEWDPF tran0 30.116235 -12.768193 0.837271
DOCKED: USER    NEWDPF quaternion0 0.150459 0.168984 0.895534 -0.383179
DOCKED: USER    NEWDPF axisangle0 0.162892 0.182948 0.969534 -134.938545
DOCKED: USER    NEWDPF quat0 0.162892 0.182948 0.969534 -134.938545
DOCKED: USER    NEWDPF dihe0 -168.16 159.40 -113.39 -25.79 159.91 -9.42 -38.16 -60.77 37.56 136.79 180.00 38.51 -2.20 126.55 
DOCKED: USER  keepresnum = 1 
DOCKED: USER  
DOCKED: REMARK  14 active torsions:
DOCKED: REMARK  status: ('A' for Active; 'I' for Inactive)
DOCKED: REMARK    1  A    between atoms: N1_2  and  C31_45 
DOCKED: REMARK    2  A    between atoms: C2_4  and  C3_9 
DOCKED: REMARK    3  A    between atoms: N2_5  and  C4_12 
DOCKED: REMARK       I    between atoms: N2_5  and  C3_9 
DOCKED: REMARK    4  A    between atoms: O2_7  and  C11_25 
DOCKED: REMARK    5  A    between atoms: N3_10  and  C10_24 
DOCKED: REMARK    6  A    between atoms: N4_13  and  C22_36 
DOCKED: REMARK       I    between atoms: N4_13  and  C21_35 
DOCKED: REMARK    7  A    between atoms: O4_15  and  C23_37 
DOCKED: REMARK    8  A    between atoms: C10_24  and  C11_25 
DOCKED: REMARK    9  A    between atoms: C11_25  and  C12_26 
DOCKED: REMARK   10  A    between atoms: C12_26  and  C13_27 
DOCKED: REMARK   11  A    between atoms: C13_27  and  C14_28 
DOCKED: REMARK   12  A    between atoms: C13_27  and  C21_35 
DOCKED: REMARK   13  A    between atoms: C14_28  and  C15_29 
DOCKED: REMARK   14  A    between atoms: C31_45  and  C32_46 
DOCKED: USER                              x       y       z     vdW  Elec       q    Type
DOCKED: USER                           _______ _______ _______ _____ _____    ______ ____
DOCKED: ROOT
DOCKED: ATOM      1  C11 MK1 B 902      30.399 -12.536  -1.073 -0.27 -0.09    +0.147 C 
DOCKED: ENDROOT
DOCKED: BRANCH   1   2
DOCKED: ATOM      2  O2  MK1 B 902      31.126 -12.196  -2.261 -0.16 +0.29    -0.394 OA
DOCKED: ATOM      3  H2  MK1 B 902      30.676 -12.644  -2.967 -0.13 -0.31    +0.210 HD
DOCKED: ENDBRANCH   1   2
DOCKED: BRANCH   1   4
DOCKED: ATOM      4  C10 MK1 B 902      29.455 -13.684  -1.487 -0.17 -0.42    +0.305 C 
DOCKED: BRANCH   4   5
DOCKED: ATOM      5  N3  MK1 B 902      28.574 -14.075  -0.354 -0.32 -0.10    +0.108 N 
DOCKED: ATOM      6  C2  MK1 B 902      29.328 -14.101   0.992 -0.16 -0.12    +0.342 C 
DOCKED: ATOM      7  C1  MK1 B 902      28.292 -14.497   2.049 -0.20 -0.08    +0.318 C 
DOCKED: ATOM      8  N1  MK1 B 902      27.130 -13.558   2.121 -0.30 -0.02    +0.097 N 
DOCKED: ATOM      9  C9  MK1 B 902      26.497 -13.505   0.791 -0.22 -0.18    +0.303 C 
DOCKED: ATOM     10  C8  MK1 B 902      27.437 -13.118  -0.348 -0.18 -0.31    +0.303 C 
DOCKED: BRANCH   6  11
DOCKED: ATOM     11  C3  MK1 B 902      30.466 -15.117   1.019 -0.19 -0.08    +0.253 C 
DOCKED: ATOM     12  O1  MK1 B 902      30.200 -16.302   1.253 -0.16 +0.11    -0.271 OA
DOCKED: ATOM     13  N2  MK1 B 902      31.708 -14.640   0.785 -0.12 +0.06    -0.351 N 
DOCKED: ATOM     14  H2  MK1 B 902      31.790 -13.638   0.613 +0.10 -0.01    +0.163 HD
DOCKED: BRANCH  13  15
DOCKED: ATOM     15  C4  MK1 B 902      32.952 -15.419   0.753 -0.48 -0.00    +0.022 C 
DOCKED: ATOM     16  C5  MK1 B 902      32.817 -16.311  -0.479 -0.45 -0.01    +0.037 C 
DOCKED: ATOM     17  C6  MK1 B 902      33.050 -16.294   1.996 -0.40 +0.00    +0.037 C 
DOCKED: ATOM     18  C7  MK1 B 902      34.184 -14.525   0.570 -0.50 +0.00    +0.037 C 
DOCKED: ENDBRANCH  13  15
DOCKED: ENDBRANCH   6  11
DOCKED: BRANCH   8  19
DOCKED: ATOM     19  C31 MK1 B 902      26.176 -13.982   3.170 -0.09 -0.03    +0.312 C 
DOCKED: BRANCH  19  20
DOCKED: ATOM     20  C32 MK1 B 902      26.455 -15.238   3.968 -0.44 +0.00    -0.015 A 
DOCKED: ATOM     21  C33 MK1 B 902      25.446 -16.200   4.175 -0.51 -0.01    +0.096 A 
DOCKED: ATOM     22  N5  MK1 B 902      25.594 -17.402   4.902 -0.17 +0.18    -0.375 N 
DOCKED: ATOM     23  C34 MK1 B 902      26.902 -17.543   5.414 -0.39 -0.04    +0.087 A 
DOCKED: ATOM     24  H5  MK1 B 902      24.848 -18.083   5.039 -0.14 -0.18    +0.164 HD
DOCKED: ATOM     25  C35 MK1 B 902      27.968 -16.644   5.260 -0.43 -0.00    +0.018 A 
DOCKED: ATOM     26  C36 MK1 B 902      27.741 -15.467   4.521 -0.40 -0.00    +0.011 A 
DOCKED: ENDBRANCH  19  20
DOCKED: ENDBRANCH   8  19
DOCKED: ENDBRANCH   4   5
DOCKED: ENDBRANCH   1   4
DOCKED: BRANCH   1  27
DOCKED: ATOM     27  C12 MK1 B 902      29.668 -11.261  -0.586 -0.34 -0.01    +0.047 C 
DOCKED: BRANCH  27  28
DOCKED: ATOM     28  C13 MK1 B 902      28.628 -10.704  -1.579 -0.27 -0.04    +0.084 C 
DOCKED: BRANCH  28  29
DOCKED: ATOM     29  C14 MK1 B 902      27.903  -9.487  -0.948 -0.35 -0.01    +0.052 C 
DOCKED: BRANCH  29  30
DOCKED: ATOM     30  C15 MK1 B 902      27.039  -8.728  -1.939 -0.24 +0.01    -0.057 A 
DOCKED: ATOM     31  C16 MK1 B 902      26.370  -9.385  -3.009 -0.29 -0.00    +0.007 A 
DOCKED: ATOM     32  C17 MK1 B 902      25.584  -8.666  -3.929 -0.27 -0.00    +0.001 A 
DOCKED: ATOM     33  C18 MK1 B 902      25.470  -7.262  -3.770 -0.28 +0.00    +0.000 A 
DOCKED: ATOM     34  C19 MK1 B 902      26.127  -6.599  -2.711 -0.29 +0.00    +0.001 A 
DOCKED: ATOM     35  C20 MK1 B 902      26.916  -7.328  -1.790 -0.29 -0.00    +0.007 A 
DOCKED: ENDBRANCH  29  30
DOCKED: ENDBRANCH  28  29
DOCKED: BRANCH  28  36
DOCKED: ATOM     36  C21 MK1 B 902      29.306 -10.267  -2.888 -0.21 -0.11    +0.222 C 
DOCKED: ATOM     37  O3  MK1 B 902      29.431 -10.994  -3.880 -0.21 +0.20    -0.273 OA
DOCKED: ATOM     38  N4  MK1 B 902      29.778  -9.020  -2.853 -0.08 +0.10    -0.350 N 
DOCKED: ATOM     39  H4  MK1 B 902      29.399  -8.384  -2.151 -0.00 -0.04    +0.163 HD
DOCKED: BRANCH  38  40
DOCKED: ATOM     40  C22 MK1 B 902      30.778  -8.523  -3.737 -0.28 -0.03    +0.147 C 
DOCKED: ATOM     41  C23 MK1 B 902      32.185  -8.456  -3.171 -0.36 -0.02    +0.149 C 
DOCKED: ATOM     42  C24 MK1 B 902      32.881  -7.409  -3.999 -0.45 -0.01    +0.073 C 
DOCKED: ATOM     43  C25 MK1 B 902      31.798  -6.429  -4.393 -0.40 +0.01    -0.047 A 
DOCKED: ATOM     44  C26 MK1 B 902      31.834  -5.080  -4.844 -0.27 -0.00    +0.008 A 
DOCKED: ATOM     45  C30 MK1 B 902      30.530  -7.109  -4.230 -0.31 +0.01    -0.027 A 
DOCKED: ATOM     46  C27 MK1 B 902      30.627  -4.429  -5.134 -0.32 -0.00    +0.001 A 
DOCKED: ATOM     47  C28 MK1 B 902      29.382  -5.063  -4.987 -0.26 -0.00    +0.001 A 
DOCKED: ATOM     48  C29 MK1 B 902      29.351  -6.393  -4.540 -0.29 -0.00    +0.010 A 
DOCKED: BRANCH  41  49
DOCKED: ATOM     49  O4  MK1 B 902      32.168  -8.082  -1.785 -0.27 +0.03    -0.393 OA
DOCKED: ATOM     50  H4  MK1 B 902      31.355  -7.648  -1.558 -0.18 -0.06    +0.210 HD
DOCKED: ENDBRANCH  41  49
DOCKED: ENDBRANCH  38  40
DOCKED: ENDBRANCH  28  36
DOCKED: ENDBRANCH  27  28
DOCKED: ENDBRANCH   1  27
DOCKED: TORSDOF 14
DOCKED: TER
DOCKED: ENDMDL
________________________________________________________________________________


	BEGINNING GENETIC ALGORITHM DOCKING 3 of 10
Run: 3 Seed: 783867145 1518743960 [ Run 3 of 10 GA/GALS ]
Beginning LAMARCKIAN GENETIC ALGORITHM (LGA), with a maximum of 2500000 energy evaluations.

Final-Value: -14.663


	FINAL GENETIC ALGORITHM DOCKED STATE
	_______________________________________________


Detailed state:  trans 25.961 -9.998 -1.130 quatxyzw 0.428931 0.411309 -0.033216 0.803579 center 28.886 -12.075 -0.082 ntor 14 179.5898 -70.8018 -127.0912 -1.0050 179.7106 139.7346 122.8530 -78.1502 20.6983 -57.0876 30.7242 34.1921 -50.0171 172.9127
State:	 25.961  -9.998  -1.130   0.721  0.691 -0.056 73.053    179.59  -70.80 -127.09   -1.00  179.71  139.73  122.85  -78.15   20.70  -57.09   30.72   34.19  -50.02  172.91

DOCKED: MODEL        3
DOCKED: USER    Run = 3
DOCKED: USER    DPF = dock.dpf
DOCKED: USER  
DOCKED: USER    Estimated Free Energy of Binding    =   -5.98 kcal/mol  [=(1)+(2)+(3)-(4)]
DOCKED: USER    Estimated Inhibition Constant, Ki   =   41.03 uM (micromolar)  [Temperature = 298.15 K]
DOCKED: USER    
DOCKED: USER    (1) Final Intermolecular Energy     =  -10.16 kcal/mol
DOCKED: USER        vdW + Hbond + desolv Energy     =   -9.00 kcal/mol
DOCKED: USER        Electrostatic Energy            =   -1.16 kcal/mol
DOCKED: USER    (2) Final Total Internal Energy     =   -4.50 kcal/mol
DOCKED: USER    (3) Torsional Free Energy           =   +4.18 kcal/mol
DOCKED: USER    (4) Unbound System's Energy  [=(2)] =   -4.50 kcal/mol
DOCKED: USER    
DOCKED: USER    
DOCKED: USER    NEWDPF move lig2r5p.pdbqt
DOCKED: USER    NEWDPF about 28.886000 -12.075000 -0.082000
DOCKED: USER    NEWDPF tran0 25.960782 -9.998049 -1.130392
DOCKED: USER    NEWDPF quaternion0 0.428931 0.411309 -0.033216 0.803579
DOCKED: USER    NEWDPF axisangle0 0.720653 0.691046 -0.055807 73.053491
DOCKED: USER    NEWDPF quat0 0.720653 0.691046 -0.055807 73.053491
DOCKED: USER    NEWDPF dihe0 179.59 -70.80 -127.09 -1.00 179.71 139.73 122.85 -78.15 20.70 -57.09 30.72 34.19 -50.02 172.91 
DOCKED: USER  keepresnum = 1 
DOCKED: USER  
DOCKED: REMARK  14 active torsions:
DOCKED: REMARK  status: ('A' for Active; 'I' for Inactive)
DOCKED: REMARK    1  A    between atoms: N1_2  and  C31_45 
DOCKED: REMARK    2  A    between atoms: C2_4  and  C3_9 
DOCKED: REMARK    3  A    between atoms: N2_5  and  C4_12 
DOCKED: REMARK       I    between atoms: N2_5  and  C3_9 
DOCKED: REMARK    4  A    between atoms: O2_7  and  C11_25 
DOCKED: REMARK    5  A    between atoms: N3_10  and  C10_24 
DOCKED: REMARK    6  A    between atoms: N4_13  and  C22_36 
DOCKED: REMARK       I    between atoms: N4_13  and  C21_35 
DOCKED: REMARK    7  A    between atoms: O4_15  and  C23_37 
DOCKED: REMARK    8  A    between atoms: C10_24  and  C11_25 
DOCKED: REMARK    9  A    between atoms: C11_25  and  C12_26 
DOCKED: REMARK   10  A    between atoms: C12_26  and  C13_27 
DOCKED: REMARK   11  A    between atoms: C13_27  and  C14_28 
DOCKED: REMARK   12  A    between atoms: C13_27  and  C21_35 
DOCKED: REMARK   13  A    between atoms: C14_28  and  C15_29 
DOCKED: REMARK   14  A    between atoms: C31_45  and  C32_46 
DOCKED: USER                              x       y       z     vdW  Elec       q    Type
DOCKED: USER                           _______ _______ _______ _____ _____    ______ ____
DOCKED: ROOT
DOCKED: ATOM      1  C11 MK1 B 902      26.510 -11.856  -0.958 -0.08 -0.15    +0.147 C 
DOCKED: ENDROOT
DOCKED: BRANCH   1   2
DOCKED: ATOM      2  O2  MK1 B 902      26.388 -13.231  -0.573 +0.47 +0.66    -0.394 OA
DOCKED: ATOM      3  H2  MK1 B 902      26.851 -13.722  -1.242 -0.37 -0.58    +0.210 HD
DOCKED: ENDBRANCH   1   2
DOCKED: BRANCH   1   4
DOCKED: ATOM      4  C10 MK1 B 902      27.341 -11.869  -2.258 -0.04 -0.42    +0.305 C 
DOCKED: BRANCH   4   5
DOCKED: ATOM      5  N3  MK1 B 902      27.528 -10.487  -2.777 -0.27 -0.08    +0.108 N 
DOCKED: ATOM      6  C2  MK1 B 902      28.554 -10.427  -3.927 +0.71 -0.26    +0.342 C 
DOCKED: ATOM      7  C1  MK1 B 902      28.617  -8.958  -4.360 -0.06 -0.13    +0.318 C 
DOCKED: ATOM      8  N1  MK1 B 902      27.298  -8.415  -4.809 -0.21 -0.04    +0.097 N 
DOCKED: ATOM      9  C9  MK1 B 902      26.334  -8.573  -3.705 -0.16 -0.07    +0.303 C 
DOCKED: ATOM     10  C8  MK1 B 902      26.184 -10.003  -3.188 -0.02 -0.18    +0.303 C 
DOCKED: BRANCH   6  11
DOCKED: ATOM     11  C3  MK1 B 902      29.951 -10.872  -3.506 -0.17 -0.15    +0.253 C 
DOCKED: ATOM     12  O1  MK1 B 902      30.188 -12.083  -3.416 -0.28 +0.33    -0.271 OA
DOCKED: ATOM     13  N2  MK1 B 902      30.847  -9.893  -3.253 -0.09 +0.10    -0.351 N 
DOCKED: ATOM     14  H2  MK1 B 902      30.519  -8.933  -3.358 +0.10 -0.04    +0.163 HD
DOCKED: BRANCH  13  15
DOCKED: ATOM     15  C4  MK1 B 902      32.244 -10.073  -2.842 -0.44 -0.00    +0.022 C 
DOCKED: ATOM     16  C5  MK1 B 902      32.842 -10.998  -3.900 -0.38 -0.01    +0.037 C 
DOCKED: ATOM     17  C6  MK1 B 902      32.304 -10.761  -1.484 +0.29 -0.00    +0.037 C 
DOCKED: ATOM     18  C7  MK1 B 902      33.021  -8.751  -2.860 -0.51 -0.00    +0.037 C 
DOCKED: ENDBRANCH  13  15
DOCKED: ENDBRANCH   6  11
DOCKED: BRANCH   8  19
DOCKED: ATOM     19  C31 MK1 B 902      27.427  -7.002  -5.231 -0.15 -0.10    +0.312 C 
DOCKED: BRANCH  19  20
DOCKED: ATOM     20  C32 MK1 B 902      28.631  -6.199  -4.787 -0.27 +0.00    -0.015 A 
DOCKED: ATOM     21  C33 MK1 B 902      28.486  -5.115  -3.897 -0.19 -0.00    +0.096 A 
DOCKED: ATOM     22  N5  MK1 B 902      29.535  -4.299  -3.420 -0.09 -0.01    -0.375 N 
DOCKED: ATOM     23  C34 MK1 B 902      30.784  -4.697  -3.943 -0.25 -0.00    +0.087 A 
DOCKED: ATOM     24  H5  MK1 B 902      29.405  -3.518  -2.777 +0.02 +0.03    +0.164 HD
DOCKED: ATOM     25  C35 MK1 B 902      31.026  -5.759  -4.828 -0.38 -0.01    +0.018 A 
DOCKED: ATOM     26  C36 MK1 B 902      29.927  -6.526  -5.259 -0.34 -0.00    +0.011 A 
DOCKED: ENDBRANCH  19  20
DOCKED: ENDBRANCH   8  19
DOCKED: ENDBRANCH   4   5
DOCKED: ENDBRANCH   1   4
DOCKED: BRANCH   1  27
DOCKED: ATOM     27  C12 MK1 B 902      27.181 -11.096   0.213 -0.17 -0.01    +0.047 C 
DOCKED: BRANCH  27  28
DOCKED: ATOM     28  C13 MK1 B 902      28.633 -10.654  -0.062 -0.36 -0.01    +0.084 C 
DOCKED: BRANCH  28  29
DOCKED: ATOM     29  C14 MK1 B 902      28.787  -9.144   0.253 +1.35 +0.01    +0.052 C 
DOCKED: BRANCH  29  30
DOCKED: ATOM     30  C15 MK1 B 902      27.604  -8.314  -0.213 -0.29 +0.00    -0.057 A 
DOCKED: ATOM     31  C16 MK1 B 902      26.280  -8.579   0.232 -0.42 +0.00    +0.007 A 
DOCKED: ATOM     32  C17 MK1 B 902      25.191  -7.810  -0.219 -0.48 +0.00    +0.001 A 
DOCKED: ATOM     33  C18 MK1 B 902      25.439  -6.757  -1.136 -0.37 +0.00    +0.000 A 
DOCKED: ATOM     34  C19 MK1 B 902      26.750  -6.484  -1.584 -0.31 +0.00    +0.001 A 
DOCKED: ATOM     35  C20 MK1 B 902      27.840  -7.261  -1.126 -0.13 -0.00    +0.007 A 
DOCKED: ENDBRANCH  29  30
DOCKED: ENDBRANCH  28  29
DOCKED: BRANCH  28  36
DOCKED: ATOM     36  C21 MK1 B 902      29.617 -11.456   0.804 -0.35 +0.02    +0.222 C 
DOCKED: ATOM     37  O3  MK1 B 902      30.138 -11.026   1.840 -1.25 -0.15    -0.273 OA
DOCKED: ATOM     38  N4  MK1 B 902      29.886 -12.670   0.322 -0.11 +0.08    -0.350 N 
DOCKED: ATOM     39  H4  MK1 B 902      29.229 -13.077  -0.343 +0.11 -0.10    +0.163 HD
DOCKED: BRANCH  38  40
DOCKED: ATOM     40  C22 MK1 B 902      31.036 -13.432   0.679 -0.32 -0.02    +0.147 C 
DOCKED: ATOM     41  C23 MK1 B 902      31.998 -13.746  -0.452 -0.18 -0.05    +0.149 C 
DOCKED: ATOM     42  C24 MK1 B 902      32.736 -14.976   0.005 -0.40 -0.01    +0.073 C 
DOCKED: ATOM     43  C25 MK1 B 902      31.749 -15.736   0.863 -0.30 +0.01    -0.047 A 
DOCKED: ATOM     44  C26 MK1 B 902      31.681 -17.094   1.283 -0.33 -0.00    +0.008 A 
DOCKED: ATOM     45  C30 MK1 B 902      30.724 -14.796   1.265 -0.29 +0.01    -0.027 A 
DOCKED: ATOM     46  C27 MK1 B 902      30.612 -17.500   2.096 -0.36 -0.00    +0.001 A 
DOCKED: ATOM     47  C28 MK1 B 902      29.604 -16.611   2.503 -0.34 -0.00    +0.001 A 
DOCKED: ATOM     48  C29 MK1 B 902      29.675 -15.273   2.085 -0.31 -0.00    +0.010 A 
DOCKED: BRANCH  41  49
DOCKED: ATOM     49  O4  MK1 B 902      31.292 -14.000  -1.676 -0.14 +0.43    -0.393 OA
DOCKED: ATOM     50  H4  MK1 B 902      31.417 -13.292  -2.297 -0.08 -0.25    +0.210 HD
DOCKED: ENDBRANCH  41  49
DOCKED: ENDBRANCH  38  40
DOCKED: ENDBRANCH  28  36
DOCKED: ENDBRANCH  27  28
DOCKED: ENDBRANCH   1  27
DOCKED: TORSDOF 14
DOCKED: TER
DOCKED: ENDMDL
________________________________________________________________________________


	BEGINNING GENETIC ALGORITHM DOCKING 4 of 10
Run: 4 Seed: 988279512 370676874 [ Run 4 of 10 GA/GALS ]
Beginning LAMARCKIAN GENETIC ALGORITHM (LGA), with a maximum of 2500000 energy evaluations.

Final-Value: -13.325


	FINAL GENETIC ALGORITHM DOCKED STATE
	_______________________________________________


Detailed state:  trans 29.528 -13.788 0.318 quatxyzw -0.006937 -0.215371 -0.506741 0.834734 center 28.886 -12.075 -0.082 ntor 14 -147.7679 -76.7076 11.8284 93.3664 55.8070 125.7679 179.8891 -67.3943 -119.9943 -79.2767 -177.9549 70.9118 55.5328 -33.9432
State:	 29.528 -13.788   0.318  -0.013 -0.391 -0.920 66.824   -147.77  -76.71   11.83   93.37   55.81  125.77  179.89  -67.39 -119.99  -79.28 -177.95   70.91   55.53  -33.94

DOCKED: MODEL        4
DOCKED: USER    Run = 4
DOCKED: USER    DPF = dock.dpf
DOCKED: USER  
DOCKED: USER    Estimated Free Energy of Binding    =   -6.76 kcal/mol  [=(1)+(2)+(3)-(4)]
DOCKED: USER    Estimated Inhibition Constant, Ki   =   11.14 uM (micromolar)  [Temperature = 298.15 K]
DOCKED: USER    
DOCKED: USER    (1) Final Intermolecular Energy     =  -10.93 kcal/mol
DOCKED: USER        vdW + Hbond + desolv Energy     =   -8.22 kcal/mol
DOCKED: USER        Electrostatic Energy            =   -2.72 kcal/mol
DOCKED: USER    (2) Final Total Internal Energy     =   -2.39 kcal/mol
DOCKED: USER    (3) Torsional Free Energy           =   +4.18 kcal/mol
DOCKED: USER    (4) Unbound System's Energy  [=(2)] =   -2.39 kcal/mol
DOCKED: USER    
DOCKED: USER    
DOCKED: USER    NEWDPF move lig2r5p.pdbqt
DOCKED: USER    NEWDPF about 28.886000 -12.075000 -0.082000
DOCKED: USER    NEWDPF tran0 29.527922 -13.788027 0.317830
DOCKED: USER    NEWDPF quaternion0 -0.006937 -0.215371 -0.506741 0.834734
DOCKED: USER    NEWDPF axisangle0 -0.012598 -0.391119 -0.920254 66.823640
DOCKED: USER    NEWDPF quat0 -0.012598 -0.391119 -0.920254 66.823640
DOCKED: USER    NEWDPF dihe0 -147.77 -76.71 11.83 93.37 55.81 125.77 179.89 -67.39 -119.99 -79.28 -177.95 70.91 55.53 -33.94 
DOCKED: USER  keepresnum = 1 
DOCKED: USER  
DOCKED: REMARK  14 active torsions:
DOCKED: REMARK  status: ('A' for Active; 'I' for Inactive)
DOCKED: REMARK    1  A    between atoms: N1_2  and  C31_45 
DOCKED: REMARK    2  A    between atoms: C2_4  and  C3_9 
DOCKED: REMARK    3  A    between atoms: N2_5  and  C4_12 
DOCKED: REMARK       I    between atoms: N2_5  and  C3_9 
DOCKED: REMARK    4  A    between atoms: O2_7  and  C11_25 
DOCKED: REMARK    5  A    between atoms: N3_10  and  C10_24 
DOCKED: REMARK    6  A    between atoms: N4_13  and  C22_36 
DOCKED: REMARK       I    between atoms: N4_13  and  C21_35 
DOCKED: REMARK    7  A    between atoms: O4_15  and  C23_37 
DOCKED: REMARK    8  A    between atoms: C10_24  and  C11_25 
DOCKED: REMARK    9  A    between atoms: C11_25  and  C12_26 
DOCKED: REMARK   10  A    between atoms: C12_26  and  C13_27 
DOCKED: REMARK   11  A    between atoms: C13_27  and  C14_28 
DOCKED: REMARK   12  A    between atoms: C13_27  and  C21_35 
DOCKED: REMARK   13  A    between atoms: C14_28  and  C15_29 
DOCKED: REMARK   14  A    between atoms: C31_45  and  C32_46 
DOCKED: USER                              x       y       z     vdW  Elec       q    Type
DOCKED: USER                           _______ _______ _______ _____ _____    ______ ____
DOCKED: ROOT
DOCKED: ATOM      1  C11 MK1 B 902      29.797 -14.899  -1.255 -0.11 -0.20    +0.147 C 
DOCKED: ENDROOT
DOCKED: BRANCH   1   2
DOCKED: ATOM      2  O2  MK1 B 902      30.374 -15.956  -2.033 +0.36 +0.67    -0.394 OA
DOCKED: ATOM      3  H2  MK1 B 902      29.951 -15.903  -2.882 +0.06 -0.65    +0.210 HD
DOCKED: ENDBRANCH   1   2
DOCKED: BRANCH   1   4
DOCKED: ATOM      4  C10 MK1 B 902      28.346 -14.766  -1.762 +0.09 -0.64    +0.305 C 
DOCKED: BRANCH   4   5
DOCKED: ATOM      5  N3  MK1 B 902      27.917 -13.342  -1.758 -0.19 -0.21    +0.108 N 
DOCKED: ATOM      6  C2  MK1 B 902      28.445 -12.574  -0.529 -0.15 -0.25    +0.342 C 
DOCKED: ATOM      7  C1  MK1 B 902      27.940 -11.135  -0.681 -0.17 -0.14    +0.318 C 
DOCKED: ATOM      8  N1  MK1 B 902      28.398 -10.476  -1.943 -0.22 -0.05    +0.097 N 
DOCKED: ATOM      9  C9  MK1 B 902      27.941 -11.293  -3.082 -0.13 -0.32    +0.303 C 
DOCKED: ATOM     10  C8  MK1 B 902      28.386 -12.753  -3.040 -0.21 -0.60    +0.303 C 
DOCKED: BRANCH   6  11
DOCKED: ATOM     11  C3  MK1 B 902      27.929 -13.135   0.793 -0.25 -0.11    +0.253 C 
DOCKED: ATOM     12  O1  MK1 B 902      28.723 -13.272   1.732 -0.23 +0.04    -0.271 OA
DOCKED: ATOM     13  N2  MK1 B 902      26.616 -13.452   0.844 -0.17 +0.20    -0.351 N 
DOCKED: ATOM     14  H2  MK1 B 902      26.073 -13.296  -0.005 -0.06 -0.18    +0.163 HD
DOCKED: BRANCH  13  15
DOCKED: ATOM     15  C4  MK1 B 902      25.894 -13.996   2.000 -0.49 -0.01    +0.022 C 
DOCKED: ATOM     16  C5  MK1 B 902      24.555 -14.465   1.433 +0.49 -0.01    +0.037 C 
DOCKED: ATOM     17  C6  MK1 B 902      25.647 -12.897   3.025 +0.41 -0.00    +0.037 C 
DOCKED: ATOM     18  C7  MK1 B 902      26.613 -15.208   2.606 -0.44 -0.01    +0.037 C 
DOCKED: ENDBRANCH  13  15
DOCKED: ENDBRANCH   6  11
DOCKED: BRANCH   8  19
DOCKED: ATOM     19  C31 MK1 B 902      27.895  -9.086  -2.023 -0.13 -0.08    +0.312 C 
DOCKED: BRANCH  19  20
DOCKED: ATOM     20  C32 MK1 B 902      26.900  -8.593  -0.995 -0.35 +0.00    -0.015 A 
DOCKED: ATOM     21  C33 MK1 B 902      27.179  -7.457  -0.208 -0.34 -0.00    +0.096 A 
DOCKED: ATOM     22  N5  MK1 B 902      26.328  -6.913   0.779 -0.05 -0.04    -0.375 N 
DOCKED: ATOM     23  C34 MK1 B 902      25.129  -7.648   0.896 +0.03 +0.01    +0.087 A 
DOCKED: ATOM     24  H5  MK1 B 902      26.552  -6.089   1.337 +0.13 +0.01    +0.164 HD
DOCKED: ATOM     25  C35 MK1 B 902      24.763  -8.785   0.159 -0.32 -0.00    +0.018 A 
DOCKED: ATOM     26  C36 MK1 B 902      25.666  -9.268  -0.807 -0.37 -0.00    +0.011 A 
DOCKED: ENDBRANCH  19  20
DOCKED: ENDBRANCH   8  19
DOCKED: ENDBRANCH   4   5
DOCKED: ENDBRANCH   1   4
DOCKED: BRANCH   1  27
DOCKED: ATOM     27  C12 MK1 B 902      30.660 -13.632  -1.469 -0.28 -0.05    +0.047 C 
DOCKED: BRANCH  27  28
DOCKED: ATOM     28  C13 MK1 B 902      31.692 -13.367  -0.354 -0.31 -0.02    +0.084 C 
DOCKED: BRANCH  28  29
DOCKED: ATOM     29  C14 MK1 B 902      31.504 -11.932   0.201 -0.09 +0.00    +0.052 C 
DOCKED: BRANCH  29  30
DOCKED: ATOM     30  C15 MK1 B 902      31.564 -10.863  -0.876 -0.22 +0.00    -0.057 A 
DOCKED: ATOM     31  C16 MK1 B 902      30.876  -9.626  -0.744 -0.33 +0.00    +0.007 A 
DOCKED: ATOM     32  C17 MK1 B 902      30.929  -8.650  -1.758 -0.29 -0.00    +0.001 A 
DOCKED: ATOM     33  C18 MK1 B 902      31.687  -8.926  -2.924 -0.37 -0.00    +0.000 A 
DOCKED: ATOM     34  C19 MK1 B 902      32.376 -10.150  -3.065 -0.41 -0.00    +0.001 A 
DOCKED: ATOM     35  C20 MK1 B 902      32.318 -11.127  -2.042 -0.09 -0.00    +0.007 A 
DOCKED: ENDBRANCH  29  30
DOCKED: ENDBRANCH  28  29
DOCKED: BRANCH  28  36
DOCKED: ATOM     36  C21 MK1 B 902      31.526 -14.380   0.790 -0.26 -0.04    +0.222 C 
DOCKED: ATOM     37  O3  MK1 B 902      31.323 -14.066   1.969 -0.12 -0.02    -0.273 OA
DOCKED: ATOM     38  N4  MK1 B 902      31.645 -15.650   0.401 -0.11 +0.10    -0.350 N 
DOCKED: ATOM     39  H4  MK1 B 902      31.515 -15.861  -0.588 +0.08 -0.09    +0.163 HD
DOCKED: BRANCH  38  40
DOCKED: ATOM     40  C22 MK1 B 902      31.942 -16.728   1.283 -0.29 -0.01    +0.147 C 
DOCKED: ATOM     41  C23 MK1 B 902      30.763 -17.596   1.685 -0.31 -0.03    +0.149 C 
DOCKED: ATOM     42  C24 MK1 B 902      31.177 -18.222   2.991 -0.10 +0.01    +0.073 C 
DOCKED: ATOM     43  C25 MK1 B 902      32.079 -17.202   3.652 -0.26 -0.01    -0.047 A 
DOCKED: ATOM     44  C26 MK1 B 902      32.495 -17.011   5.000 -0.17 +0.00    +0.008 A 
DOCKED: ATOM     45  C30 MK1 B 902      32.535 -16.302   2.613 -0.32 -0.00    -0.027 A 
DOCKED: ATOM     46  C27 MK1 B 902      33.356 -15.946   5.299 -0.17 +0.00    +0.001 A 
DOCKED: ATOM     47  C28 MK1 B 902      33.816 -15.058   4.313 -0.08 +0.00    +0.001 A 
DOCKED: ATOM     48  C29 MK1 B 902      33.402 -15.249   2.986 -0.34 +0.00    +0.010 A 
DOCKED: BRANCH  41  49
DOCKED: ATOM     49  O4  MK1 B 902      29.574 -16.810   1.851 -0.16 +0.14    -0.393 OA
DOCKED: ATOM     50  H4  MK1 B 902      28.991 -16.911   1.108 -0.44 -0.15    +0.210 HD
DOCKED: ENDBRANCH  41  49
DOCKED: ENDBRANCH  38  40
DOCKED: ENDBRANCH  28  36
DOCKED: ENDBRANCH  27  28
DOCKED: ENDBRANCH   1  27
DOCKED: TORSDOF 14
DOCKED: TER
DOCKED: ENDMDL
________________________________________________________________________________


	BEGINNING GENETIC ALGORITHM DOCKING 5 of 10
Run: 5 Seed: 101608967 238512794 [ Run 5 of 10 GA/GALS ]
Beginning LAMARCKIAN GENETIC ALGORITHM (LGA), with a maximum of 2500000 energy evaluations.

Final-Value: -9.429


	FINAL GENETIC ALGORITHM DOCKED STATE
	_______________________________________________


Detailed state:  trans 28.447 -12.369 3.333 quatxyzw -0.321393 0.244034 0.726399 0.556325 center 28.886 -12.075 -0.082 ntor 14 14.2746 -73.0672 -59.7423 180.0000 73.4890 158.6639 -178.4753 90.5851 117.0394 -166.7787 166.2552 -156.7657 -74.3906 -29.3776
State:	 28.447 -12.369   3.333  -0.387  0.294  0.874 112.396     14.27  -73.07  -59.74  180.00   73.49  158.66 -178.48   90.59  117.04 -166.78  166.26 -156.77  -74.39  -29.38

DOCKED: MODEL        5
DOCKED: USER    Run = 5
DOCKED: USER    DPF = dock.dpf
DOCKED: USER  
DOCKED: USER    Estimated Free Energy of Binding    =   -3.80 kcal/mol  [=(1)+(2)+(3)-(4)]
DOCKED: USER    Estimated Inhibition Constant, Ki   =    1.65 mM (millimolar)  [Temperature = 298.15 K]
DOCKED: USER    
DOCKED: USER    (1) Final Intermolecular Energy     =   -7.97 kcal/mol
DOCKED: USER        vdW + Hbond + desolv Energy     =   -8.06 kcal/mol
DOCKED: USER        Electrostatic Energy            =   +0.09 kcal/mol
DOCKED: USER    (2) Final Total Internal Energy     =   -1.46 kcal/mol
DOCKED: USER    (3) Torsional Free Energy           =   +4.18 kcal/mol
DOCKED: USER    (4) Unbound System's Energy  [=(2)] =   -1.46 kcal/mol
DOCKED: USER    
DOCKED: USER    
DOCKED: USER    NEWDPF move lig2r5p.pdbqt
DOCKED: USER    NEWDPF about 28.886000 -12.075000 -0.082000
DOCKED: USER    NEWDPF tran0 28.447333 -12.369324 3.333035
DOCKED: USER    NEWDPF quaternion0 -0.321393 0.244034 0.726399 0.556325
DOCKED: USER    NEWDPF axisangle0 -0.386771 0.293676 0.874164 112.395976
DOCKED: USER    NEWDPF quat0 -0.386771 0.293676 0.874164 112.395976
DOCKED: USER    NEWDPF dihe0 14.27 -73.07 -59.74 180.00 73.49 158.66 -178.48 90.59 117.04 -166.78 166.26 -156.77 -74.39 -29.38 
DOCKED: USER  keepresnum = 1 
DOCKED: USER  
DOCKED: REMARK  14 active torsions:
DOCKED: REMARK  status: ('A' for Active; 'I' for Inactive)
DOCKED: REMARK    1  A    between atoms: N1_2  and  C31_45 
DOCKED: REMARK    2  A    between atoms: C2_4  and  C3_9 
DOCKED: REMARK    3  A    between atoms: N2_5  and  C4_12 
DOCKED: REMARK       I    between atoms: N2_5  and  C3_9 
DOCKED: REMARK    4  A    between atoms: O2_7  and  C11_25 
DOCKED: REMARK    5  A    between atoms: N3_10  and  C10_24 
DOCKED: REMARK    6  A    between atoms: N4_13  and  C22_36 
DOCKED: REMARK       I    between atoms: N4_13  and  C21_35 
DOCKED: REMARK    7  A    between atoms: O4_15  and  C23_37 
DOCKED: REMARK    8  A    between atoms: C10_24  and  C11_25 
DOCKED: REMARK    9  A    between atoms: C11_25  and  C12_26 
DOCKED: REMARK   10  A    between atoms: C12_26  and  C13_27 
DOCKED: REMARK   11  A    between atoms: C13_27  and  C14_28 
DOCKED: REMARK   12  A    between atoms: C13_27  and  C21_35 
DOCKED: REMARK   13  A    between atoms: C14_28  and  C15_29 
DOCKED: REMARK   14  A    between atoms: C31_45  and  C32_46 
DOCKED: USER                              x       y       z     vdW  Elec       q    Type
DOCKED: USER                           _______ _______ _______ _____ _____    ______ ____
DOCKED: ROOT
DOCKED: ATOM      1  C11 MK1 B 902      28.912 -11.796   1.534 -0.22 +0.01    +0.147 C 
DOCKED: ENDROOT
DOCKED: BRANCH   1   2
DOCKED: ATOM      2  O2  MK1 B 902      28.739 -11.103   0.291 -0.21 +0.04    -0.394 OA
DOCKED: ATOM      3  H2  MK1 B 902      27.816 -10.882   0.252 +0.13 -0.04    +0.210 HD
DOCKED: ENDBRANCH   1   2
DOCKED: BRANCH   1   4
DOCKED: ATOM      4  C10 MK1 B 902      30.436 -11.830   1.773 +0.78 +0.13    +0.305 C 
DOCKED: BRANCH   4   5
DOCKED: ATOM      5  N3  MK1 B 902      31.169 -11.411   0.548 -0.28 +0.03    +0.108 N 
DOCKED: ATOM      6  C2  MK1 B 902      30.770 -12.243  -0.687 -0.17 -0.11    +0.342 C 
DOCKED: ATOM      7  C1  MK1 B 902      31.588 -11.683  -1.856 -0.14 -0.12    +0.318 C 
DOCKED: ATOM      8  N1  MK1 B 902      31.343 -10.229  -2.107 -0.29 -0.02    +0.097 N 
DOCKED: ATOM      9  C9  MK1 B 902      31.658  -9.488  -0.872 -0.08 +0.02    +0.303 C 
DOCKED: ATOM     10  C8  MK1 B 902      30.899  -9.960   0.366 +0.14 +0.10    +0.303 C 
DOCKED: BRANCH   6  11
DOCKED: ATOM     11  C3  MK1 B 902      31.090 -13.728  -0.536 -0.24 -0.13    +0.253 C 
DOCKED: ATOM     12  O1  MK1 B 902      30.258 -14.558  -0.919 -0.25 +0.27    -0.271 OA
DOCKED: ATOM     13  N2  MK1 B 902      32.282 -14.035   0.021 -0.13 +0.07    -0.351 N 
DOCKED: ATOM     14  H2  MK1 B 902      32.874 -13.253   0.301 +0.13 -0.00    +0.163 HD
DOCKED: BRANCH  13  15
DOCKED: ATOM     15  C4  MK1 B 902      32.811 -15.383   0.263 -0.47 -0.00    +0.022 C 
DOCKED: ATOM     16  C5  MK1 B 902      34.122 -15.430  -0.521 +0.03 -0.00    +0.037 C 
DOCKED: ATOM     17  C6  MK1 B 902      31.854 -16.427  -0.298 -0.36 -0.01    +0.037 C 
DOCKED: ATOM     18  C7  MK1 B 902      33.126 -15.617   1.745 -0.45 +0.00    +0.037 C 
DOCKED: ENDBRANCH  13  15
DOCKED: ENDBRANCH   6  11
DOCKED: BRANCH   8  19
DOCKED: ATOM     19  C31 MK1 B 902      32.144  -9.752  -3.257 -0.23 -0.05    +0.312 C 
DOCKED: BRANCH  19  20
DOCKED: ATOM     20  C32 MK1 B 902      31.623  -8.614  -4.109 -0.38 +0.00    -0.015 A 
DOCKED: ATOM     21  C33 MK1 B 902      32.495  -7.619  -4.595 -0.41 -0.02    +0.096 A 
DOCKED: ATOM     22  N5  MK1 B 902      32.118  -6.517  -5.393 -0.06 +0.28    -0.375 N 
DOCKED: ATOM     23  C34 MK1 B 902      30.732  -6.517  -5.663 -0.34 -0.05    +0.087 A 
DOCKED: ATOM     24  H5  MK1 B 902      32.768  -5.807  -5.733 -0.48 -0.27    +0.164 HD
DOCKED: ATOM     25  C35 MK1 B 902      29.790  -7.462  -5.225 -0.33 -0.00    +0.018 A 
DOCKED: ATOM     26  C36 MK1 B 902      30.244  -8.533  -4.433 -0.34 -0.00    +0.011 A 
DOCKED: ENDBRANCH  19  20
DOCKED: ENDBRANCH   8  19
DOCKED: ENDBRANCH   4   5
DOCKED: ENDBRANCH   1   4
DOCKED: BRANCH   1  27
DOCKED: ATOM     27  C12 MK1 B 902      28.264 -13.194   1.387 -0.36 -0.01    +0.047 C 
DOCKED: BRANCH  27  28
DOCKED: ATOM     28  C13 MK1 B 902      26.800 -13.272   1.868 -0.30 -0.02    +0.084 C 
DOCKED: BRANCH  28  29
DOCKED: ATOM     29  C14 MK1 B 902      25.850 -13.305   0.644 +0.43 -0.03    +0.052 C 
DOCKED: BRANCH  29  30
DOCKED: ATOM     30  C15 MK1 B 902      26.479 -12.735  -0.615 +0.95 +0.08    -0.057 A 
DOCKED: ATOM     31  C16 MK1 B 902      25.908 -11.631  -1.305 +0.25 -0.01    +0.007 A 
DOCKED: ATOM     32  C17 MK1 B 902      26.495 -11.121  -2.479 -0.34 -0.00    +0.001 A 
DOCKED: ATOM     33  C18 MK1 B 902      27.677 -11.735  -2.966 -0.33 -0.00    +0.000 A 
DOCKED: ATOM     34  C19 MK1 B 902      28.253 -12.831  -2.289 -0.38 -0.00    +0.001 A 
DOCKED: ATOM     35  C20 MK1 B 902      27.658 -13.338  -1.110 +0.14 -0.01    +0.007 A 
DOCKED: ENDBRANCH  29  30
DOCKED: ENDBRANCH  28  29
DOCKED: BRANCH  28  36
DOCKED: ATOM     36  C21 MK1 B 902      26.575 -14.533   2.719 -0.29 -0.03    +0.222 C 
DOCKED: ATOM     37  O3  MK1 B 902      25.758 -14.609   3.643 -0.29 +0.02    -0.273 OA
DOCKED: ATOM     38  N4  MK1 B 902      27.369 -15.551   2.384 -0.15 +0.07    -0.350 N 
DOCKED: ATOM     39  H4  MK1 B 902      27.796 -15.540   1.457 +0.08 -0.06    +0.163 HD
DOCKED: BRANCH  38  40
DOCKED: ATOM     40  C22 MK1 B 902      27.656 -16.652   3.241 -0.37 -0.02    +0.147 C 
DOCKED: ATOM     41  C23 MK1 B 902      27.432 -16.411   4.723 -0.42 -0.02    +0.149 C 
DOCKED: ATOM     42  C24 MK1 B 902      28.320 -17.414   5.411 -0.42 -0.02    +0.073 C 
DOCKED: ATOM     43  C25 MK1 B 902      29.502 -17.601   4.485 -0.30 +0.01    -0.047 A 
DOCKED: ATOM     44  C26 MK1 B 902      30.818 -18.104   4.689 -0.19 -0.00    +0.008 A 
DOCKED: ATOM     45  C30 MK1 B 902      29.093 -17.136   3.176 -0.36 +0.01    -0.027 A 
DOCKED: ATOM     46  C27 MK1 B 902      31.702 -18.148   3.601 +0.01 +0.00    +0.001 A 
DOCKED: ATOM     47  C28 MK1 B 902      31.334 -17.706   2.320 -0.35 +0.00    +0.001 A 
DOCKED: ATOM     48  C29 MK1 B 902      30.036 -17.210   2.125 -0.35 -0.00    +0.010 A 
DOCKED: BRANCH  41  49
DOCKED: ATOM     49  O4  MK1 B 902      27.796 -15.072   5.090 -0.23 +0.03    -0.393 OA
DOCKED: ATOM     50  H4  MK1 B 902      27.026 -14.543   5.261 +0.15 +0.00    +0.210 HD
DOCKED: ENDBRANCH  41  49
DOCKED: ENDBRANCH  38  40
DOCKED: ENDBRANCH  28  36
DOCKED: ENDBRANCH  27  28
DOCKED: ENDBRANCH   1  27
DOCKED: TORSDOF 14
DOCKED: TER
DOCKED: ENDMDL
________________________________________________________________________________


	BEGINNING GENETIC ALGORITHM DOCKING 6 of 10
Run: 6 Seed: 387085899 2142010159 [ Run 6 of 10 GA/GALS ]
Beginning LAMARCKIAN GENETIC ALGORITHM (LGA), with a maximum of 2500000 energy evaluations.

Final-Value: -15.734


	FINAL GENETIC ALGORITHM DOCKED STATE
	_______________________________________________


Detailed state:  trans 27.668 -9.703 -1.085 quatxyzw -0.088190 -0.260759 -0.449925 -0.849585 center 28.886 -12.075 -0.082 ntor 14 -57.0958 115.2025 70.6274 -53.9342 -151.2710 -129.3675 -171.9685 -177.1205 10.8529 -66.8869 61.1323 -26.5374 -151.4475 -135.1549
State:	 27.668  -9.703  -1.085  -0.167 -0.494 -0.853 -63.667    -57.10  115.20   70.63  -53.93 -151.27 -129.37 -171.97 -177.12   10.85  -66.89   61.13  -26.54 -151.45 -135.15

DOCKED: MODEL        6
DOCKED: USER    Run = 6
DOCKED: USER    DPF = dock.dpf
DOCKED: USER  
DOCKED: USER    Estimated Free Energy of Binding    =   -9.36 kcal/mol  [=(1)+(2)+(3)-(4)]
DOCKED: USER    Estimated Inhibition Constant, Ki   =  137.50 nM (nanomolar)  [Temperature = 298.15 K]
DOCKED: USER    
DOCKED: USER    (1) Final Intermolecular Energy     =  -13.54 kcal/mol
DOCKED: USER        vdW + Hbond + desolv Energy     =  -12.75 kcal/mol
DOCKED: USER        Electrostatic Energy            =   -0.78 kcal/mol
DOCKED: USER    (2) Final Total Internal Energy     =   -2.20 kcal/mol
DOCKED: USER    (3) Torsional Free Energy           =   +4.18 kcal/mol
DOCKED: USER    (4) Unbound System's Energy  [=(2)] =   -2.20 kcal/mol
DOCKED: USER    
DOCKED: USER    
DOCKED: USER    NEWDPF move lig2r5p.pdbqt
DOCKED: USER    NEWDPF about 28.886000 -12.075000 -0.082000
DOCKED: USER    NEWDPF tran0 27.668076 -9.702782 -1.084769
DOCKED: USER    NEWDPF quaternion0 -0.088190 -0.260759 -0.449925 -0.849585
DOCKED: USER    NEWDPF axisangle0 -0.167201 -0.494375 -0.853017 -63.666828
DOCKED: USER    NEWDPF quat0 -0.167201 -0.494375 -0.853017 -63.666828
DOCKED: USER    NEWDPF dihe0 -57.10 115.20 70.63 -53.93 -151.27 -129.37 -171.97 -177.12 10.85 -66.89 61.13 -26.54 -151.45 -135.15 
DOCKED: USER  keepresnum = 1 
DOCKED: USER  
DOCKED: REMARK  14 active torsions:
DOCKED: REMARK  status: ('A' for Active; 'I' for Inactive)
DOCKED: REMARK    1  A    between atoms: N1_2  and  C31_45 
DOCKED: REMARK    2  A    between atoms: C2_4  and  C3_9 
DOCKED: REMARK    3  A    between atoms: N2_5  and  C4_12 
DOCKED: REMARK       I    between atoms: N2_5  and  C3_9 
DOCKED: REMARK    4  A    between atoms: O2_7  and  C11_25 
DOCKED: REMARK    5  A    between atoms: N3_10  and  C10_24 
DOCKED: REMARK    6  A    between atoms: N4_13  and  C22_36 
DOCKED: REMARK       I    between atoms: N4_13  and  C21_35 
DOCKED: REMARK    7  A    between atoms: O4_15  and  C23_37 
DOCKED: REMARK    8  A    between atoms: C10_24  and  C11_25 
DOCKED: REMARK    9  A    between atoms: C11_25  and  C12_26 
DOCKED: REMARK   10  A    between atoms: C12_26  and  C13_27 
DOCKED: REMARK   11  A    between atoms: C13_27  and  C14_28 
DOCKED: REMARK   12  A    between atoms: C13_27  and  C21_35 
DOCKED: REMARK   13  A    between atoms: C14_28  and  C15_29 
DOCKED: REMARK   14  A    between atoms: C31_45  and  C32_46 
DOCKED: USER                              x       y       z     vdW  Elec       q    Type
DOCKED: USER                           _______ _______ _______ _____ _____    ______ ____
DOCKED: ROOT
DOCKED: ATOM      1  C11 MK1 B 902      27.190 -10.753  -2.650 -0.29 -0.12    +0.147 C 
DOCKED: ENDROOT
DOCKED: BRANCH   1   2
DOCKED: ATOM      2  O2  MK1 B 902      26.312 -11.426  -3.562 +0.07 +0.52    -0.394 OA
DOCKED: ATOM      3  H2  MK1 B 902      26.226 -12.309  -3.223 -0.16 -0.52    +0.210 HD
DOCKED: ENDBRANCH   1   2
DOCKED: BRANCH   1   4
DOCKED: ATOM      4  C10 MK1 B 902      28.362 -10.243  -3.515 +0.07 -0.20    +0.305 C 
DOCKED: BRANCH   4   5
DOCKED: ATOM      5  N3  MK1 B 902      28.445  -8.758  -3.464 -0.22 -0.04    +0.108 N 
DOCKED: ATOM      6  C2  MK1 B 902      29.234  -8.175  -4.654 -0.19 -0.09    +0.342 C 
DOCKED: ATOM      7  C1  MK1 B 902      29.212  -6.653  -4.470 -0.16 -0.09    +0.318 C 
DOCKED: ATOM      8  N1  MK1 B 902      27.831  -6.081  -4.429 -0.23 -0.01    +0.097 N 
DOCKED: ATOM      9  C9  MK1 B 902      27.094  -6.731  -3.330 -0.14 +0.01    +0.303 C 
DOCKED: ATOM     10  C8  MK1 B 902      27.047  -8.256  -3.409 -0.14 -0.06    +0.303 C 
DOCKED: BRANCH   6  11
DOCKED: ATOM     11  C3  MK1 B 902      30.686  -8.641  -4.695 -0.26 -0.05    +0.253 C 
DOCKED: ATOM     12  O1  MK1 B 902      31.216  -8.844  -5.794 -0.94 +0.02    -0.271 OA
DOCKED: ATOM     13  N2  MK1 B 902      31.301  -8.806  -3.503 -0.10 +0.07    -0.351 N 
DOCKED: ATOM     14  H2  MK1 B 902      30.747  -8.611  -2.670 +0.08 -0.04    +0.163 HD
DOCKED: BRANCH  13  15
DOCKED: ATOM     15  C4  MK1 B 902      32.688  -9.237  -3.289 -0.48 -0.00    +0.022 C 
DOCKED: ATOM     16  C5  MK1 B 902      32.570 -10.656  -2.736 -0.39 -0.01    +0.037 C 
DOCKED: ATOM     17  C6  MK1 B 902      33.355  -8.347  -2.248 -0.53 +0.00    +0.037 C 
DOCKED: ATOM     18  C7  MK1 B 902      33.480  -9.293  -4.601 -0.55 -0.00    +0.037 C 
DOCKED: ENDBRANCH  13  15
DOCKED: ENDBRANCH   6  11
DOCKED: BRANCH   8  19
DOCKED: ATOM     19  C31 MK1 B 902      27.877  -4.610  -4.268 -0.09 +0.04    +0.312 C 
DOCKED: BRANCH  19  20
DOCKED: ATOM     20  C32 MK1 B 902      27.275  -3.976  -3.032 -0.19 -0.00    -0.015 A 
DOCKED: ATOM     21  C33 MK1 B 902      25.895  -3.692  -2.967 -0.14 +0.04    +0.096 A 
DOCKED: ATOM     22  N5  MK1 B 902      25.230  -3.103  -1.869 -0.06 -0.10    -0.375 N 
DOCKED: ATOM     23  C34 MK1 B 902      26.120  -2.821  -0.810 -0.18 +0.02    +0.087 A 
DOCKED: ATOM     24  H5  MK1 B 902      24.229  -2.906  -1.845 +0.05 +0.04    +0.164 HD
DOCKED: ATOM     25  C35 MK1 B 902      27.501  -3.068  -0.783 -0.32 +0.00    +0.018 A 
DOCKED: ATOM     26  C36 MK1 B 902      28.091  -3.658  -1.917 -0.26 +0.00    +0.011 A 
DOCKED: ENDBRANCH  19  20
DOCKED: ENDBRANCH   8  19
DOCKED: ENDBRANCH   4   5
DOCKED: ENDBRANCH   1   4
DOCKED: BRANCH   1  27
DOCKED: ATOM     27  C12 MK1 B 902      27.605 -11.769  -1.559 -0.35 -0.05    +0.047 C 
DOCKED: BRANCH  27  28
DOCKED: ATOM     28  C13 MK1 B 902      28.881 -11.385  -0.782 -0.29 -0.04    +0.084 C 
DOCKED: BRANCH  28  29
DOCKED: ATOM     29  C14 MK1 B 902      29.047  -9.843  -0.780 -0.34 -0.01    +0.052 C 
DOCKED: BRANCH  29  30
DOCKED: ATOM     30  C15 MK1 B 902      27.787  -9.109  -0.356 -0.33 +0.00    -0.057 A 
DOCKED: ATOM     31  C16 MK1 B 902      26.629  -9.803   0.090 -0.07 -0.00    +0.007 A 
DOCKED: ATOM     32  C17 MK1 B 902      25.463  -9.109   0.467 -0.09 -0.00    +0.001 A 
DOCKED: ATOM     33  C18 MK1 B 902      25.463  -7.693   0.391 -0.51 +0.00    +0.000 A 
DOCKED: ATOM     34  C19 MK1 B 902      26.608  -6.994  -0.050 -0.46 +0.00    +0.001 A 
DOCKED: ATOM     35  C20 MK1 B 902      27.776  -7.697  -0.427 -0.22 -0.00    +0.007 A 
DOCKED: ENDBRANCH  29  30
DOCKED: ENDBRANCH  28  29
DOCKED: BRANCH  28  36
DOCKED: ATOM     36  C21 MK1 B 902      28.805 -11.888   0.668 -0.28 -0.03    +0.222 C 
DOCKED: ATOM     37  O3  MK1 B 902      28.692 -11.150   1.653 -0.47 -0.06    -0.273 OA
DOCKED: ATOM     38  N4  MK1 B 902      28.898 -13.214   0.779 -0.11 +0.12    -0.350 N 
DOCKED: ATOM     39  H4  MK1 B 902      28.694 -13.779  -0.046 +0.11 -0.12    +0.163 HD
DOCKED: BRANCH  38  40
DOCKED: ATOM     40  C22 MK1 B 902      29.265 -13.889   1.978 -0.30 -0.02    +0.147 C 
DOCKED: ATOM     41  C23 MK1 B 902      30.409 -14.879   1.856 -0.26 -0.03    +0.149 C 
DOCKED: ATOM     42  C24 MK1 B 902      30.212 -15.834   3.003 -0.14 -0.02    +0.073 C 
DOCKED: ATOM     43  C25 MK1 B 902      28.716 -15.891   3.221 -0.32 +0.01    -0.047 A 
DOCKED: ATOM     44  C26 MK1 B 902      27.870 -16.834   3.871 -0.42 -0.00    +0.008 A 
DOCKED: ATOM     45  C30 MK1 B 902      28.150 -14.713   2.597 -0.33 +0.00    -0.027 A 
DOCKED: ATOM     46  C27 MK1 B 902      26.488 -16.596   3.902 -0.52 -0.00    +0.001 A 
DOCKED: ATOM     47  C28 MK1 B 902      25.911 -15.463   3.308 -0.50 -0.00    +0.001 A 
DOCKED: ATOM     48  C29 MK1 B 902      26.749 -14.537   2.666 -0.37 -0.00    +0.010 A 
DOCKED: BRANCH  41  49
DOCKED: ATOM     49  O4  MK1 B 902      30.360 -15.573   0.601 -0.10 +0.20    -0.393 OA
DOCKED: ATOM     50  H4  MK1 B 902      29.582 -16.114   0.539 -0.31 -0.17    +0.210 HD
DOCKED: ENDBRANCH  41  49
DOCKED: ENDBRANCH  38  40
DOCKED: ENDBRANCH  28  36
DOCKED: ENDBRANCH  27  28
DOCKED: ENDBRANCH   1  27
DOCKED: TORSDOF 14
DOCKED: TER
DOCKED: ENDMDL
________________________________________________________________________________


	BEGINNING GENETIC ALGORITHM DOCKING 7 of 10
Run: 7 Seed: 1976395571 1840365316 [ Run 7 of 10 GA/GALS ]
Beginning LAMARCKIAN GENETIC ALGORITHM (LGA), with a maximum of 2500000 energy evaluations.

Final-Value: -19.273


	FINAL GENETIC ALGORITHM DOCKED STATE
	_______________________________________________


Detailed state:  trans 28.121 -12.260 -1.065 quatxyzw -0.396488 0.382946 0.805814 -0.216365 center 28.886 -12.075 -0.082 ntor 14 -136.7951 127.1168 2.6517 -179.7959 -44.2482 2.5793 180.0000 -120.7250 -137.4972 -106.9225 173.1929 -6.6241 124.0398 -36.1041
State:	 28.121 -12.260  -1.065  -0.406  0.392  0.825 -155.009   -136.80  127.12    2.65 -179.80  -44.25    2.58  180.00 -120.73 -137.50 -106.92  173.19   -6.62  124.04  -36.10

DOCKED: MODEL        7
DOCKED: USER    Run = 7
DOCKED: USER    DPF = dock.dpf
DOCKED: USER  
DOCKED: USER    Estimated Free Energy of Binding    =  -11.03 kcal/mol  [=(1)+(2)+(3)-(4)]
DOCKED: USER    Estimated Inhibition Constant, Ki   =    8.24 nM (nanomolar)  [Temperature = 298.15 K]
DOCKED: USER    
DOCKED: USER    (1) Final Intermolecular Energy     =  -15.20 kcal/mol
DOCKED: USER        vdW + Hbond + desolv Energy     =  -13.22 kcal/mol
DOCKED: USER        Electrostatic Energy            =   -1.98 kcal/mol
DOCKED: USER    (2) Final Total Internal Energy     =   -4.07 kcal/mol
DOCKED: USER    (3) Torsional Free Energy           =   +4.18 kcal/mol
DOCKED: USER    (4) Unbound System's Energy  [=(2)] =   -4.07 kcal/mol
DOCKED: USER    
DOCKED: USER    
DOCKED: USER    NEWDPF move lig2r5p.pdbqt
DOCKED: USER    NEWDPF about 28.886000 -12.075000 -0.082000
DOCKED: USER    NEWDPF tran0 28.121361 -12.259740 -1.064575
DOCKED: USER    NEWDPF quaternion0 -0.396488 0.382946 0.805814 -0.216365
DOCKED: USER    NEWDPF axisangle0 -0.406108 0.392237 0.825365 -155.008717
DOCKED: USER    NEWDPF quat0 -0.406108 0.392237 0.825365 -155.008717
DOCKED: USER    NEWDPF dihe0 -136.80 127.12 2.65 -179.80 -44.25 2.58 180.00 -120.73 -137.50 -106.92 173.19 -6.62 124.04 -36.10 
DOCKED: USER  keepresnum = 1 
DOCKED: USER  
DOCKED: REMARK  14 active torsions:
DOCKED: REMARK  status: ('A' for Active; 'I' for Inactive)
DOCKED: REMARK    1  A    between atoms: N1_2  and  C31_45 
DOCKED: REMARK    2  A    between atoms: C2_4  and  C3_9 
DOCKED: REMARK    3  A    between atoms: N2_5  and  C4_12 
DOCKED: REMARK       I    between atoms: N2_5  and  C3_9 
DOCKED: REMARK    4  A    between atoms: O2_7  and  C11_25 
DOCKED: REMARK    5  A    between atoms: N3_10  and  C10_24 
DOCKED: REMARK    6  A    between atoms: N4_13  and  C22_36 
DOCKED: REMARK       I    between atoms: N4_13  and  C21_35 
DOCKED: REMARK    7  A    between atoms: O4_15  and  C23_37 
DOCKED: REMARK    8  A    between atoms: C10_24  and  C11_25 
DOCKED: REMARK    9  A    between atoms: C11_25  and  C12_26 
DOCKED: REMARK   10  A    between atoms: C12_26  and  C13_27 
DOCKED: REMARK   11  A    between atoms: C13_27  and  C14_28 
DOCKED: REMARK   12  A    between atoms: C13_27  and  C21_35 
DOCKED: REMARK   13  A    between atoms: C14_28  and  C15_29 
DOCKED: REMARK   14  A    between atoms: C31_45  and  C32_46 
DOCKED: USER                              x       y       z     vdW  Elec       q    Type
DOCKED: USER                           _______ _______ _______ _____ _____    ______ ____
DOCKED: ROOT
DOCKED: ATOM      1  C11 MK1 B 902      29.763 -12.809  -1.951 -0.26 -0.18    +0.147 C 
DOCKED: ENDROOT
DOCKED: BRANCH   1   2
DOCKED: ATOM      2  O2  MK1 B 902      31.104 -12.667  -2.438 -0.16 +0.41    -0.394 OA
DOCKED: ATOM      3  H2  MK1 B 902      31.248 -13.418  -3.001 -0.33 -0.44    +0.210 HD
DOCKED: ENDBRANCH   1   2
DOCKED: BRANCH   1   4
DOCKED: ATOM      4  C10 MK1 B 902      29.620 -14.301  -1.582 +0.12 -0.49    +0.305 C 
DOCKED: BRANCH   4   5
DOCKED: ATOM      5  N3  MK1 B 902      28.879 -14.456  -0.301 -0.32 -0.10    +0.108 N 
DOCKED: ATOM      6  C2  MK1 B 902      29.409 -13.517   0.801 -0.16 -0.11    +0.342 C 
DOCKED: ATOM      7  C1  MK1 B 902      28.539 -13.780   2.035 -0.18 -0.05    +0.318 C 
DOCKED: ATOM      8  N1  MK1 B 902      27.084 -13.533   1.797 -0.32 -0.03    +0.097 N 
DOCKED: ATOM      9  C9  MK1 B 902      26.647 -14.392   0.681 -0.01 -0.20    +0.303 C 
DOCKED: ATOM     10  C8  MK1 B 902      27.444 -14.216  -0.609 -0.01 -0.44    +0.303 C 
DOCKED: BRANCH   6  11
DOCKED: ATOM     11  C3  MK1 B 902      30.867 -13.786   1.165 -0.22 -0.02    +0.253 C 
DOCKED: ATOM     12  O1  MK1 B 902      31.631 -12.825   1.311 -0.44 -0.06    -0.271 OA
DOCKED: ATOM     13  N2  MK1 B 902      31.226 -15.082   1.301 -0.09 +0.06    -0.351 N 
DOCKED: ATOM     14  H2  MK1 B 902      30.498 -15.779   1.145 +0.07 -0.06    +0.163 HD
DOCKED: BRANCH  13  15
DOCKED: ATOM     15  C4  MK1 B 902      32.559 -15.586   1.650 -0.42 +0.00    +0.022 C 
DOCKED: ATOM     16  C5  MK1 B 902      32.428 -17.106   1.579 -0.38 +0.00    +0.037 C 
DOCKED: ATOM     17  C6  MK1 B 902      32.913 -15.179   3.075 -0.35 +0.00    +0.037 C 
DOCKED: ATOM     18  C7  MK1 B 902      33.622 -15.145   0.637 -0.54 +0.00    +0.037 C 
DOCKED: ENDBRANCH  13  15
DOCKED: ENDBRANCH   6  11
DOCKED: BRANCH   8  19
DOCKED: ATOM     19  C31 MK1 B 902      26.300 -13.786   3.028 +0.06 -0.03    +0.312 C 
DOCKED: BRANCH  19  20
DOCKED: ATOM     20  C32 MK1 B 902      26.306 -15.168   3.645 -0.44 +0.00    -0.015 A 
DOCKED: ATOM     21  C33 MK1 B 902      27.363 -16.066   3.392 -0.35 -0.01    +0.096 A 
DOCKED: ATOM     22  N5  MK1 B 902      27.470 -17.375   3.911 -0.20 +0.07    -0.375 N 
DOCKED: ATOM     23  C34 MK1 B 902      26.372 -17.700   4.737 -0.36 -0.04    +0.087 A 
DOCKED: ATOM     24  H5  MK1 B 902      28.246 -18.007   3.714 +0.07 -0.06    +0.164 HD
DOCKED: ATOM     25  C35 MK1 B 902      25.279 -16.875   5.046 -0.42 -0.01    +0.018 A 
DOCKED: ATOM     26  C36 MK1 B 902      25.245 -15.583   4.489 -0.56 -0.00    +0.011 A 
DOCKED: ENDBRANCH  19  20
DOCKED: ENDBRANCH   8  19
DOCKED: ENDBRANCH   4   5
DOCKED: ENDBRANCH   1   4
DOCKED: BRANCH   1  27
DOCKED: ATOM     27  C12 MK1 B 902      28.803 -12.341  -3.072 -0.43 -0.07    +0.047 C 
DOCKED: BRANCH  27  28
DOCKED: ATOM     28  C13 MK1 B 902      28.254 -10.912  -2.885 -0.33 -0.07    +0.084 C 
DOCKED: BRANCH  28  29
DOCKED: ATOM     29  C14 MK1 B 902      27.523 -10.807  -1.521 -0.34 -0.03    +0.052 C 
DOCKED: BRANCH  29  30
DOCKED: ATOM     30  C15 MK1 B 902      26.910  -9.439  -1.277 -0.29 +0.01    -0.057 A 
DOCKED: ATOM     31  C16 MK1 B 902      27.274  -8.644  -0.156 -0.40 -0.00    +0.007 A 
DOCKED: ATOM     32  C17 MK1 B 902      26.687  -7.384   0.065 -0.47 +0.00    +0.001 A 
DOCKED: ATOM     33  C18 MK1 B 902      25.717  -6.917  -0.857 -0.41 +0.00    +0.000 A 
DOCKED: ATOM     34  C19 MK1 B 902      25.349  -7.698  -1.974 -0.22 +0.00    +0.001 A 
DOCKED: ATOM     35  C20 MK1 B 902      25.942  -8.964  -2.190 -0.32 -0.00    +0.007 A 
DOCKED: ENDBRANCH  29  30
DOCKED: ENDBRANCH  28  29
DOCKED: BRANCH  28  36
DOCKED: ATOM     36  C21 MK1 B 902      29.394  -9.882  -2.929 -0.20 -0.09    +0.222 C 
DOCKED: ATOM     37  O3  MK1 B 902      29.375  -8.800  -2.331 -0.16 +0.07    -0.273 OA
DOCKED: ATOM     38  N4  MK1 B 902      30.417 -10.252  -3.701 -0.10 +0.13    -0.350 N 
DOCKED: ATOM     39  H4  MK1 B 902      30.516 -11.243  -3.923 +0.10 -0.11    +0.163 HD
DOCKED: BRANCH  38  40
DOCKED: ATOM     40  C22 MK1 B 902      31.378  -9.346  -4.236 -0.33 -0.03    +0.147 C 
DOCKED: ATOM     41  C23 MK1 B 902      32.537  -8.996  -3.319 -0.37 -0.02    +0.149 C 
DOCKED: ATOM     42  C24 MK1 B 902      33.033  -7.666  -3.822 -0.45 -0.01    +0.073 C 
DOCKED: ATOM     43  C25 MK1 B 902      31.809  -6.970  -4.378 -0.41 +0.01    -0.047 A 
DOCKED: ATOM     44  C26 MK1 B 902      31.519  -5.605  -4.658 -0.41 -0.00    +0.008 A 
DOCKED: ATOM     45  C30 MK1 B 902      30.814  -7.992  -4.624 -0.37 +0.01    -0.027 A 
DOCKED: ATOM     46  C27 MK1 B 902      30.261  -5.273  -5.181 -0.32 -0.00    +0.001 A 
DOCKED: ATOM     47  C28 MK1 B 902      29.277  -6.242  -5.431 -0.28 -0.00    +0.001 A 
DOCKED: ATOM     48  C29 MK1 B 902      29.567  -7.586  -5.152 -0.33 -0.00    +0.010 A 
DOCKED: BRANCH  41  49
DOCKED: ATOM     49  O4  MK1 B 902      32.105  -8.896  -1.955 -0.21 +0.02    -0.393 OA
DOCKED: ATOM     50  H4  MK1 B 902      31.367  -8.303  -1.871 +0.05 -0.03    +0.210 HD
DOCKED: ENDBRANCH  41  49
DOCKED: ENDBRANCH  38  40
DOCKED: ENDBRANCH  28  36
DOCKED: ENDBRANCH  27  28
DOCKED: ENDBRANCH   1  27
DOCKED: TORSDOF 14
DOCKED: TER
DOCKED: ENDMDL
________________________________________________________________________________


	BEGINNING GENETIC ALGORITHM DOCKING 8 of 10
Run: 8 Seed: 833923362 613522195 [ Run 8 of 10 GA/GALS ]
Beginning LAMARCKIAN GENETIC ALGORITHM (LGA), with a maximum of 2500000 energy evaluations.

Final-Value: -13.301


	FINAL GENETIC ALGORITHM DOCKED STATE
	_______________________________________________


Detailed state:  trans 30.949 -11.020 -1.677 quatxyzw 0.432713 -0.183619 0.581995 0.663570 center 28.886 -12.075 -0.082 ntor 14 39.6873 82.7335 111.0335 -65.0331 -96.1810 111.8734 165.9275 -21.1866 9.3834 -87.6479 -156.5635 -45.8227 174.3964 -36.1591
State:	 30.949 -11.020  -1.677   0.578 -0.245  0.778 96.855     39.69   82.73  111.03  -65.03  -96.18  111.87  165.93  -21.19    9.38  -87.65 -156.56  -45.82  174.40  -36.16

DOCKED: MODEL        8
DOCKED: USER    Run = 8
DOCKED: USER    DPF = dock.dpf
DOCKED: USER  
DOCKED: USER    Estimated Free Energy of Binding    =   -6.68 kcal/mol  [=(1)+(2)+(3)-(4)]
DOCKED: USER    Estimated Inhibition Constant, Ki   =   12.71 uM (micromolar)  [Temperature = 298.15 K]
DOCKED: USER    
DOCKED: USER    (1) Final Intermolecular Energy     =  -10.86 kcal/mol
DOCKED: USER        vdW + Hbond + desolv Energy     =   -9.97 kcal/mol
DOCKED: USER        Electrostatic Energy            =   -0.88 kcal/mol
DOCKED: USER    (2) Final Total Internal Energy     =   -2.45 kcal/mol
DOCKED: USER    (3) Torsional Free Energy           =   +4.18 kcal/mol
DOCKED: USER    (4) Unbound System's Energy  [=(2)] =   -2.45 kcal/mol
DOCKED: USER    
DOCKED: USER    
DOCKED: USER    NEWDPF move lig2r5p.pdbqt
DOCKED: USER    NEWDPF about 28.886000 -12.075000 -0.082000
DOCKED: USER    NEWDPF tran0 30.949341 -11.019830 -1.677123
DOCKED: USER    NEWDPF quaternion0 0.432713 -0.183619 0.581995 0.663570
DOCKED: USER    NEWDPF axisangle0 0.578405 -0.245442 0.777950 96.854621
DOCKED: USER    NEWDPF quat0 0.578405 -0.245442 0.777950 96.854621
DOCKED: USER    NEWDPF dihe0 39.69 82.73 111.03 -65.03 -96.18 111.87 165.93 -21.19 9.38 -87.65 -156.56 -45.82 174.40 -36.16 
DOCKED: USER  keepresnum = 1 
DOCKED: USER  
DOCKED: REMARK  14 active torsions:
DOCKED: REMARK  status: ('A' for Active; 'I' for Inactive)
DOCKED: REMARK    1  A    between atoms: N1_2  and  C31_45 
DOCKED: REMARK    2  A    between atoms: C2_4  and  C3_9 
DOCKED: REMARK    3  A    between atoms: N2_5  and  C4_12 
DOCKED: REMARK       I    between atoms: N2_5  and  C3_9 
DOCKED: REMARK    4  A    between atoms: O2_7  and  C11_25 
DOCKED: REMARK    5  A    between atoms: N3_10  and  C10_24 
DOCKED: REMARK    6  A    between atoms: N4_13  and  C22_36 
DOCKED: REMARK       I    between atoms: N4_13  and  C21_35 
DOCKED: REMARK    7  A    between atoms: O4_15  and  C23_37 
DOCKED: REMARK    8  A    between atoms: C10_24  and  C11_25 
DOCKED: REMARK    9  A    between atoms: C11_25  and  C12_26 
DOCKED: REMARK   10  A    between atoms: C12_26  and  C13_27 
DOCKED: REMARK   11  A    between atoms: C13_27  and  C14_28 
DOCKED: REMARK   12  A    between atoms: C13_27  and  C21_35 
DOCKED: REMARK   13  A    between atoms: C14_28  and  C15_29 
DOCKED: REMARK   14  A    between atoms: C31_45  and  C32_46 
DOCKED: USER                              x       y       z     vdW  Elec       q    Type
DOCKED: USER                           _______ _______ _______ _____ _____    ______ ____
DOCKED: ROOT
DOCKED: ATOM      1  C11 MK1 B 902      29.020 -11.259  -1.731 -0.25 -0.09    +0.147 C 
DOCKED: ENDROOT
DOCKED: BRANCH   1   2
DOCKED: ATOM      2  O2  MK1 B 902      27.663 -11.086  -1.302 -0.10 +0.24    -0.394 OA
DOCKED: ATOM      3  H2  MK1 B 902      27.697 -10.430  -0.617 +0.13 -0.06    +0.210 HD
DOCKED: ENDBRANCH   1   2
DOCKED: BRANCH   1   4
DOCKED: ATOM      4  C10 MK1 B 902      28.947 -11.407  -3.265 -0.21 -0.29    +0.305 C 
DOCKED: BRANCH   4   5
DOCKED: ATOM      5  N3  MK1 B 902      29.275 -10.119  -3.933 -0.25 -0.05    +0.108 N 
DOCKED: ATOM      6  C2  MK1 B 902      29.175  -8.917  -2.970 -0.12 -0.10    +0.342 C 
DOCKED: ATOM      7  C1  MK1 B 902      29.558  -7.683  -3.794 -0.14 -0.08    +0.318 C 
DOCKED: ATOM      8  N1  MK1 B 902      30.931  -7.766  -4.382 -0.29 -0.02    +0.097 N 
DOCKED: ATOM      9  C9  MK1 B 902      30.999  -8.973  -5.224 -0.13 -0.04    +0.303 C 
DOCKED: ATOM     10  C8  MK1 B 902      30.638 -10.273  -4.507 +1.53 -0.09    +0.303 C 
DOCKED: BRANCH   6  11
DOCKED: ATOM     11  C3  MK1 B 902      27.769  -8.715  -2.412 -0.15 -0.06    +0.253 C 
DOCKED: ATOM     12  O1  MK1 B 902      27.608  -8.731  -1.186 -0.20 +0.04    -0.271 OA
DOCKED: ATOM     13  N2  MK1 B 902      26.781  -8.533  -3.315 -0.08 +0.08    -0.351 N 
DOCKED: ATOM     14  H2  MK1 B 902      27.050  -8.549  -4.299 -0.09 -0.06    +0.163 HD
DOCKED: BRANCH  13  15
DOCKED: ATOM     15  C4  MK1 B 902      25.360  -8.313  -3.022 -0.37 +0.00    +0.022 C 
DOCKED: ATOM     16  C5  MK1 B 902      24.875  -9.640  -2.441 -0.04 -0.01    +0.037 C 
DOCKED: ATOM     17  C6  MK1 B 902      24.601  -8.022  -4.310 -0.11 +0.01    +0.037 C 
DOCKED: ATOM     18  C7  MK1 B 902      25.156  -7.219  -1.966 -0.24 +0.01    +0.037 C 
DOCKED: ENDBRANCH  13  15
DOCKED: ENDBRANCH   6  11
DOCKED: BRANCH   8  19
DOCKED: ATOM     19  C31 MK1 B 902      31.248  -6.539  -5.148 -0.27 -0.15    +0.312 C 
DOCKED: BRANCH  19  20
DOCKED: ATOM     20  C32 MK1 B 902      30.791  -5.194  -4.626 -0.36 +0.00    -0.015 A 
DOCKED: ATOM     21  C33 MK1 B 902      29.627  -5.085  -3.838 -0.17 -0.01    +0.096 A 
DOCKED: ATOM     22  N5  MK1 B 902      29.109  -3.886  -3.301 -0.10 -0.03    -0.375 N 
DOCKED: ATOM     23  C34 MK1 B 902      29.906  -2.773  -3.647 -0.18 +0.02    +0.087 A 
DOCKED: ATOM     24  H5  MK1 B 902      28.264  -3.831  -2.734 +0.05 +0.02    +0.164 HD
DOCKED: ATOM     25  C35 MK1 B 902      31.077  -2.784  -4.422 -0.30 +0.00    +0.018 A 
DOCKED: ATOM     26  C36 MK1 B 902      31.529  -4.020  -4.921 -0.34 -0.00    +0.011 A 
DOCKED: ENDBRANCH  19  20
DOCKED: ENDBRANCH   8  19
DOCKED: ENDBRANCH   4   5
DOCKED: ENDBRANCH   1   4
DOCKED: BRANCH   1  27
DOCKED: ATOM     27  C12 MK1 B 902      29.589 -12.501  -1.003 -0.32 -0.03    +0.047 C 
DOCKED: BRANCH  27  28
DOCKED: ATOM     28  C13 MK1 B 902      30.476 -12.175   0.217 -0.37 -0.01    +0.084 C 
DOCKED: BRANCH  28  29
DOCKED: ATOM     29  C14 MK1 B 902      30.711 -10.644   0.296 -0.45 +0.01    +0.052 C 
DOCKED: BRANCH  29  30
DOCKED: ATOM     30  C15 MK1 B 902      31.585 -10.116  -0.828 -0.25 -0.00    -0.057 A 
DOCKED: ATOM     31  C16 MK1 B 902      32.222 -10.986  -1.755 -0.06 -0.00    +0.007 A 
DOCKED: ATOM     32  C17 MK1 B 902      33.040 -10.484  -2.784 -0.34 -0.00    +0.001 A 
DOCKED: ATOM     33  C18 MK1 B 902      33.222  -9.080  -2.880 -0.47 -0.00    +0.000 A 
DOCKED: ATOM     34  C19 MK1 B 902      32.593  -8.207  -1.966 -0.49 -0.00    +0.001 A 
DOCKED: ATOM     35  C20 MK1 B 902      31.772  -8.719  -0.934 -0.13 +0.00    +0.007 A 
DOCKED: ENDBRANCH  29  30
DOCKED: ENDBRANCH  28  29
DOCKED: BRANCH  28  36
DOCKED: ATOM     36  C21 MK1 B 902      29.809 -12.653   1.516 -0.26 +0.01    +0.222 C 
DOCKED: ATOM     37  O3  MK1 B 902      29.690 -11.957   2.531 +0.09 -0.09    -0.273 OA
DOCKED: ATOM     38  N4  MK1 B 902      29.382 -13.915   1.464 -0.12 +0.08    -0.350 N 
DOCKED: ATOM     39  H4  MK1 B 902      29.236 -14.334   0.544 +0.10 -0.08    +0.163 HD
DOCKED: BRANCH  38  40
DOCKED: ATOM     40  C22 MK1 B 902      29.118 -14.715   2.613 -0.29 -0.03    +0.147 C 
DOCKED: ATOM     41  C23 MK1 B 902      29.784 -16.079   2.636 -0.27 -0.04    +0.149 C 
DOCKED: ATOM     42  C24 MK1 B 902      28.930 -16.905   3.561 -0.37 -0.02    +0.073 C 
DOCKED: ATOM     43  C25 MK1 B 902      27.528 -16.360   3.401 -0.39 +0.01    -0.047 A 
DOCKED: ATOM     44  C26 MK1 B 902      26.243 -16.898   3.693 -0.47 -0.00    +0.008 A 
DOCKED: ATOM     45  C30 MK1 B 902      27.650 -15.036   2.826 -0.35 +0.00    -0.027 A 
DOCKED: ATOM     46  C27 MK1 B 902      25.106 -16.124   3.423 -0.57 -0.00    +0.001 A 
DOCKED: ATOM     47  C28 MK1 B 902      25.193 -14.837   2.867 -0.53 -0.00    +0.001 A 
DOCKED: ATOM     48  C29 MK1 B 902      26.462 -14.311   2.579 -0.39 -0.00    +0.010 A 
DOCKED: BRANCH  41  49
DOCKED: ATOM     49  O4  MK1 B 902      29.822 -16.658   1.323 -0.03 +0.19    -0.393 OA
DOCKED: ATOM     50  H4  MK1 B 902      29.103 -17.265   1.196 -0.47 -0.14    +0.210 HD
DOCKED: ENDBRANCH  41  49
DOCKED: ENDBRANCH  38  40
DOCKED: ENDBRANCH  28  36
DOCKED: ENDBRANCH  27  28
DOCKED: ENDBRANCH   1  27
DOCKED: TORSDOF 14
DOCKED: TER
DOCKED: ENDMDL
________________________________________________________________________________


	BEGINNING GENETIC ALGORITHM DOCKING 9 of 10
Run: 9 Seed: 1828595973 1561511976 [ Run 9 of 10 GA/GALS ]
Beginning LAMARCKIAN GENETIC ALGORITHM (LGA), with a maximum of 2500000 energy evaluations.

Final-Value: -19.606


	FINAL GENETIC ALGORITHM DOCKED STATE
	_______________________________________________


Detailed state:  trans 32.791 -13.194 -0.216 quatxyzw -0.560846 0.322076 -0.683106 -0.339242 center 28.886 -12.075 -0.082 ntor 14 -80.1464 166.7270 -122.7311 -149.7176 -143.1815 -104.2378 -6.5041 -75.3548 -134.4176 180.0000 -19.6326 -141.9494 -56.8327 -165.1065
State:	 32.791 -13.194  -0.216  -0.596  0.342 -0.726 -140.339    -80.15  166.73 -122.73 -149.72 -143.18 -104.24   -6.50  -75.35 -134.42  180.00  -19.63 -141.95  -56.83 -165.11

DOCKED: MODEL        9
DOCKED: USER    Run = 9
DOCKED: USER    DPF = dock.dpf
DOCKED: USER  
DOCKED: USER    Estimated Free Energy of Binding    =  -11.48 kcal/mol  [=(1)+(2)+(3)-(4)]
DOCKED: USER    Estimated Inhibition Constant, Ki   =    3.82 nM (nanomolar)  [Temperature = 298.15 K]
DOCKED: USER    
DOCKED: USER    (1) Final Intermolecular Energy     =  -15.66 kcal/mol
DOCKED: USER        vdW + Hbond + desolv Energy     =  -14.21 kcal/mol
DOCKED: USER        Electrostatic Energy            =   -1.45 kcal/mol
DOCKED: USER    (2) Final Total Internal Energy     =   -3.95 kcal/mol
DOCKED: USER    (3) Torsional Free Energy           =   +4.18 kcal/mol
DOCKED: USER    (4) Unbound System's Energy  [=(2)] =   -3.95 kcal/mol
DOCKED: USER    
DOCKED: USER    
DOCKED: USER    NEWDPF move lig2r5p.pdbqt
DOCKED: USER    NEWDPF about 28.886000 -12.075000 -0.082000
DOCKED: USER    NEWDPF tran0 32.791102 -13.193926 -0.215907
DOCKED: USER    NEWDPF quaternion0 -0.560846 0.322076 -0.683106 -0.339242
DOCKED: USER    NEWDPF axisangle0 -0.596202 0.342380 -0.726168 -140.338628
DOCKED: USER    NEWDPF quat0 -0.596202 0.342380 -0.726168 -140.338628
DOCKED: USER    NEWDPF dihe0 -80.15 166.73 -122.73 -149.72 -143.18 -104.24 -6.50 -75.35 -134.42 180.00 -19.63 -141.95 -56.83 -165.11 
DOCKED: USER  keepresnum = 1 
DOCKED: USER  
DOCKED: REMARK  14 active torsions:
DOCKED: REMARK  status: ('A' for Active; 'I' for Inactive)
DOCKED: REMARK    1  A    between atoms: N1_2  and  C31_45 
DOCKED: REMARK    2  A    between atoms: C2_4  and  C3_9 
DOCKED: REMARK    3  A    between atoms: N2_5  and  C4_12 
DOCKED: REMARK       I    between atoms: N2_5  and  C3_9 
DOCKED: REMARK    4  A    between atoms: O2_7  and  C11_25 
DOCKED: REMARK    5  A    between atoms: N3_10  and  C10_24 
DOCKED: REMARK    6  A    between atoms: N4_13  and  C22_36 
DOCKED: REMARK       I    between atoms: N4_13  and  C21_35 
DOCKED: REMARK    7  A    between atoms: O4_15  and  C23_37 
DOCKED: REMARK    8  A    between atoms: C10_24  and  C11_25 
DOCKED: REMARK    9  A    between atoms: C11_25  and  C12_26 
DOCKED: REMARK   10  A    between atoms: C12_26  and  C13_27 
DOCKED: REMARK   11  A    between atoms: C13_27  and  C14_28 
DOCKED: REMARK   12  A    between atoms: C13_27  and  C21_35 
DOCKED: REMARK   13  A    between atoms: C14_28  and  C15_29 
DOCKED: REMARK   14  A    between atoms: C31_45  and  C32_46 
DOCKED: USER                              x       y       z     vdW  Elec       q    Type
DOCKED: USER                           _______ _______ _______ _____ _____    ______ ____
DOCKED: ROOT
DOCKED: ATOM      1  C11 MK1 B 902      31.181 -12.233   0.301 -0.30 +0.00    +0.147 C 
DOCKED: ENDROOT
DOCKED: BRANCH   1   2
DOCKED: ATOM      2  O2  MK1 B 902      30.414 -11.201   0.935 -0.94 -0.12    -0.394 OA
DOCKED: ATOM      3  H2  MK1 B 902      29.930 -11.636   1.626 +0.11 +0.06    +0.210 HD
DOCKED: ENDBRANCH   1   2
DOCKED: BRANCH   1   4
DOCKED: ATOM      4  C10 MK1 B 902      30.391 -12.604  -0.972 -0.17 -0.17    +0.305 C 
DOCKED: BRANCH   4   5
DOCKED: ATOM      5  N3  MK1 B 902      29.195 -11.731  -1.120 -0.21 -0.06    +0.108 N 
DOCKED: ATOM      6  C2  MK1 B 902      29.226 -10.912  -2.427 -0.15 -0.21    +0.342 C 
DOCKED: ATOM      7  C1  MK1 B 902      27.933 -10.090  -2.442 -0.14 -0.16    +0.318 C 
DOCKED: ATOM      8  N1  MK1 B 902      26.696 -10.930  -2.382 -0.33 -0.09    +0.097 N 
DOCKED: ATOM      9  C9  MK1 B 902      26.756 -11.753  -1.160 -0.10 -0.31    +0.303 C 
DOCKED: ATOM     10  C8  MK1 B 902      28.007 -12.620  -1.036 -0.18 -0.33    +0.303 C 
DOCKED: BRANCH   6  11
DOCKED: ATOM     11  C3  MK1 B 902      30.413  -9.956  -2.505 -0.20 -0.07    +0.253 C 
DOCKED: ATOM     12  O1  MK1 B 902      30.633  -9.201  -1.550 -0.24 +0.03    -0.271 OA
DOCKED: ATOM     13  N2  MK1 B 902      31.152 -10.001  -3.636 -0.10 +0.10    -0.351 N 
DOCKED: ATOM     14  H2  MK1 B 902      30.857 -10.665  -4.351 +0.12 -0.06    +0.163 HD
DOCKED: BRANCH  13  15
DOCKED: ATOM     15  C4  MK1 B 902      32.336  -9.189  -3.937 -0.47 -0.00    +0.022 C 
DOCKED: ATOM     16  C5  MK1 B 902      33.317  -9.502  -2.809 -0.49 -0.00    +0.037 C 
DOCKED: ATOM     17  C6  MK1 B 902      31.978  -7.709  -3.893 -0.45 -0.01    +0.037 C 
DOCKED: ATOM     18  C7  MK1 B 902      32.984  -9.592  -5.267 -0.61 -0.01    +0.037 C 
DOCKED: ENDBRANCH  13  15
DOCKED: ENDBRANCH   6  11
DOCKED: BRANCH   8  19
DOCKED: ATOM     19  C31 MK1 B 902      25.483 -10.082  -2.418 -0.15 -0.14    +0.312 C 
DOCKED: BRANCH  19  20
DOCKED: ATOM     20  C32 MK1 B 902      25.603  -8.598  -2.146 -0.31 +0.00    -0.015 A 
DOCKED: ATOM     21  C33 MK1 B 902      25.778  -8.117  -0.832 -0.36 -0.00    +0.096 A 
DOCKED: ATOM     22  N5  MK1 B 902      25.899  -6.759  -0.464 -0.18 -0.04    -0.375 N 
DOCKED: ATOM     23  C34 MK1 B 902      25.826  -5.906  -1.587 -0.28 +0.02    +0.087 A 
DOCKED: ATOM     24  H5  MK1 B 902      26.024  -6.435   0.495 +0.09 +0.02    +0.164 HD
DOCKED: ATOM     25  C35 MK1 B 902      25.655  -6.291  -2.926 -0.28 +0.01    +0.018 A 
DOCKED: ATOM     26  C36 MK1 B 902      25.542  -7.664  -3.212 -0.33 +0.00    +0.011 A 
DOCKED: ENDBRANCH  19  20
DOCKED: ENDBRANCH   8  19
DOCKED: ENDBRANCH   4   5
DOCKED: ENDBRANCH   1   4
DOCKED: BRANCH   1  27
DOCKED: ATOM     27  C12 MK1 B 902      31.333 -13.395   1.312 -0.29 +0.00    +0.047 C 
DOCKED: BRANCH  27  28
DOCKED: ATOM     28  C13 MK1 B 902      30.983 -14.786   0.742 -0.32 -0.02    +0.084 C 
DOCKED: BRANCH  28  29
DOCKED: ATOM     29  C14 MK1 B 902      32.207 -15.729   0.878 -0.38 -0.01    +0.052 C 
DOCKED: BRANCH  29  30
DOCKED: ATOM     30  C15 MK1 B 902      32.430 -16.214   2.299 -0.30 -0.00    -0.057 A 
DOCKED: ATOM     31  C16 MK1 B 902      33.268 -15.512   3.209 -0.37 +0.00    +0.007 A 
DOCKED: ATOM     32  C17 MK1 B 902      33.477 -15.981   4.519 -0.33 +0.00    +0.001 A 
DOCKED: ATOM     33  C18 MK1 B 902      32.832 -17.178   4.921 -0.27 +0.00    +0.000 A 
DOCKED: ATOM     34  C19 MK1 B 902      31.997 -17.883   4.027 -0.15 +0.00    +0.001 A 
DOCKED: ATOM     35  C20 MK1 B 902      31.792 -17.406   2.711 -0.31 +0.00    +0.007 A 
DOCKED: ENDBRANCH  29  30
DOCKED: ENDBRANCH  28  29
DOCKED: BRANCH  28  36
DOCKED: ATOM     36  C21 MK1 B 902      29.789 -15.395   1.493 -0.21 -0.07    +0.222 C 
DOCKED: ATOM     37  O3  MK1 B 902      28.841 -15.967   0.941 +0.00 +0.17    -0.273 OA
DOCKED: ATOM     38  N4  MK1 B 902      29.849 -15.230   2.815 -0.11 +0.07    -0.350 N 
DOCKED: ATOM     39  H4  MK1 B 902      30.759 -15.028   3.231 -0.37 -0.04    +0.163 HD
DOCKED: BRANCH  38  40
DOCKED: ATOM     40  C22 MK1 B 902      28.722 -15.320   3.681 -0.18 -0.03    +0.147 C 
DOCKED: ATOM     41  C23 MK1 B 902      28.391 -16.710   4.193 -0.35 -0.03    +0.149 C 
DOCKED: ATOM     42  C24 MK1 B 902      26.928 -16.648   4.546 -0.51 -0.01    +0.073 C 
DOCKED: ATOM     43  C25 MK1 B 902      26.328 -15.651   3.579 -0.44 +0.00    -0.047 A 
DOCKED: ATOM     44  C26 MK1 B 902      24.994 -15.411   3.145 -0.57 -0.00    +0.008 A 
DOCKED: ATOM     45  C30 MK1 B 902      27.418 -14.853   3.060 -0.33 +0.00    -0.027 A 
DOCKED: ATOM     46  C27 MK1 B 902      24.757 -14.388   2.216 -0.49 -0.00    +0.001 A 
DOCKED: ATOM     47  C28 MK1 B 902      25.794 -13.597   1.696 -0.30 -0.00    +0.001 A 
DOCKED: ATOM     48  C29 MK1 B 902      27.108 -13.838   2.126 -0.33 -0.00    +0.010 A 
DOCKED: BRANCH  41  49
DOCKED: ATOM     49  O4  MK1 B 902      28.631 -17.703   3.186 -0.73 +0.10    -0.393 OA
DOCKED: ATOM     50  H4  MK1 B 902      28.755 -17.303   2.333 +0.09 -0.05    +0.210 HD
DOCKED: ENDBRANCH  41  49
DOCKED: ENDBRANCH  38  40
DOCKED: ENDBRANCH  28  36
DOCKED: ENDBRANCH  27  28
DOCKED: ENDBRANCH   1  27
DOCKED: TORSDOF 14
DOCKED: TER
DOCKED: ENDMDL
________________________________________________________________________________


	BEGINNING GENETIC ALGORITHM DOCKING 10 of 10
Run: 10 Seed: 1389901078 441858452 [ Run 10 of 10 GA/GALS ]
Beginning LAMARCKIAN GENETIC ALGORITHM (LGA), with a maximum of 2500000 energy evaluations.

Final-Value: -17.031


	FINAL GENETIC ALGORITHM DOCKED STATE
	_______________________________________________


Detailed state:  trans 26.694 -13.045 -0.544 quatxyzw 0.115688 -0.758191 -0.029173 -0.641024 center 28.886 -12.075 -0.082 ntor 14 163.1269 147.0367 126.6470 70.5687 -18.8078 145.9269 142.6193 -118.4455 -146.1377 71.9832 137.4819 -10.8749 5.8697 150.9252
State:	 26.694 -13.045  -0.544   0.151 -0.988 -0.038 -100.263    163.13  147.04  126.65   70.57  -18.81  145.93  142.62 -118.45 -146.14   71.98  137.48  -10.87    5.87  150.93

DOCKED: MODEL       10
DOCKED: USER    Run = 10
DOCKED: USER    DPF = dock.dpf
DOCKED: USER  
DOCKED: USER    Estimated Free Energy of Binding    =   -9.71 kcal/mol  [=(1)+(2)+(3)-(4)]
DOCKED: USER    Estimated Inhibition Constant, Ki   =   76.77 nM (nanomolar)  [Temperature = 298.15 K]
DOCKED: USER    
DOCKED: USER    (1) Final Intermolecular Energy     =  -13.88 kcal/mol
DOCKED: USER        vdW + Hbond + desolv Energy     =  -12.77 kcal/mol
DOCKED: USER        Electrostatic Energy            =   -1.12 kcal/mol
DOCKED: USER    (2) Final Total Internal Energy     =   -3.15 kcal/mol
DOCKED: USER    (3) Torsional Free Energy           =   +4.18 kcal/mol
DOCKED: USER    (4) Unbound System's Energy  [=(2)] =   -3.15 kcal/mol
DOCKED: USER    
DOCKED: USER    
DOCKED: USER    NEWDPF move lig2r5p.pdbqt
DOCKED: USER    NEWDPF about 28.886000 -12.075000 -0.082000
DOCKED: USER    NEWDPF tran0 26.693833 -13.045443 -0.543781
DOCKED: USER    NEWDPF quaternion0 0.115688 -0.758191 -0.029173 -0.641024
DOCKED: USER    NEWDPF axisangle0 0.150730 -0.987844 -0.038009 -100.263498
DOCKED: USER    NEWDPF quat0 0.150730 -0.987844 -0.038009 -100.263498
DOCKED: USER    NEWDPF dihe0 163.13 147.04 126.65 70.57 -18.81 145.93 142.62 -118.45 -146.14 71.98 137.48 -10.87 5.87 150.93 
DOCKED: USER  keepresnum = 1 
DOCKED: USER  
DOCKED: REMARK  14 active torsions:
DOCKED: REMARK  status: ('A' for Active; 'I' for Inactive)
DOCKED: REMARK    1  A    between atoms: N1_2  and  C31_45 
DOCKED: REMARK    2  A    between atoms: C2_4  and  C3_9 
DOCKED: REMARK    3  A    between atoms: N2_5  and  C4_12 
DOCKED: REMARK       I    between atoms: N2_5  and  C3_9 
DOCKED: REMARK    4  A    between atoms: O2_7  and  C11_25 
DOCKED: REMARK    5  A    between atoms: N3_10  and  C10_24 
DOCKED: REMARK    6  A    between atoms: N4_13  and  C22_36 
DOCKED: REMARK       I    between atoms: N4_13  and  C21_35 
DOCKED: REMARK    7  A    between atoms: O4_15  and  C23_37 
DOCKED: REMARK    8  A    between atoms: C10_24  and  C11_25 
DOCKED: REMARK    9  A    between atoms: C11_25  and  C12_26 
DOCKED: REMARK   10  A    between atoms: C12_26  and  C13_27 
DOCKED: REMARK   11  A    between atoms: C13_27  and  C14_28 
DOCKED: REMARK   12  A    between atoms: C13_27  and  C21_35 
DOCKED: REMARK   13  A    between atoms: C14_28  and  C15_29 
DOCKED: REMARK   14  A    between atoms: C31_45  and  C32_46 
DOCKED: USER                              x       y       z     vdW  Elec       q    Type
DOCKED: USER                           _______ _______ _______ _____ _____    ______ ____
DOCKED: ROOT
DOCKED: ATOM      1  C11 MK1 B 902      28.417 -13.920  -0.759 -0.36 -0.17    +0.147 C 
DOCKED: ENDROOT
DOCKED: BRANCH   1   2
DOCKED: ATOM      2  O2  MK1 B 902      29.338 -14.907  -1.243 -0.19 +0.57    -0.394 OA
DOCKED: ATOM      3  H2  MK1 B 902      30.076 -14.416  -1.585 -0.15 -0.33    +0.210 HD
DOCKED: ENDBRANCH   1   2
DOCKED: BRANCH   1   4
DOCKED: ATOM      4  C10 MK1 B 902      29.242 -12.621  -0.634 -0.16 -0.19    +0.305 C 
DOCKED: BRANCH   4   5
DOCKED: ATOM      5  N3  MK1 B 902      28.499 -11.470  -1.213 -0.22 -0.07    +0.108 N 
DOCKED: ATOM      6  C2  MK1 B 902      28.671 -11.370  -2.742 -0.20 -0.31    +0.342 C 
DOCKED: ATOM      7  C1  MK1 B 902      27.839 -10.161  -3.183 -0.05 -0.21    +0.318 C 
DOCKED: ATOM      8  N1  MK1 B 902      26.391 -10.278  -2.829 -0.31 -0.06    +0.097 N 
DOCKED: ATOM      9  C9  MK1 B 902      26.285 -10.455  -1.370 -0.20 -0.15    +0.303 C 
DOCKED: ATOM     10  C8  MK1 B 902      27.077 -11.637  -0.812 -0.19 -0.24    +0.303 C 
DOCKED: BRANCH   6  11
DOCKED: ATOM     11  C3  MK1 B 902      30.120 -11.146  -3.166 -0.23 -0.17    +0.253 C 
DOCKED: ATOM     12  O1  MK1 B 902      30.787 -12.117  -3.543 -0.27 +0.30    -0.271 OA
DOCKED: ATOM     13  N2  MK1 B 902      30.582  -9.878  -3.095 -0.09 +0.10    -0.351 N 
DOCKED: ATOM     14  H2  MK1 B 902      29.929  -9.170  -2.759 +0.10 -0.04    +0.163 HD
DOCKED: BRANCH  13  15
DOCKED: ATOM     15  C4  MK1 B 902      31.928  -9.418  -3.454 -0.42 -0.00    +0.022 C 
DOCKED: ATOM     16  C5  MK1 B 902      32.870 -10.330  -2.669 -0.41 -0.00    +0.037 C 
DOCKED: ATOM     17  C6  MK1 B 902      32.126  -7.979  -2.994 -0.46 -0.00    +0.037 C 
DOCKED: ATOM     18  C7  MK1 B 902      32.216  -9.597  -4.949 -0.50 -0.01    +0.037 C 
DOCKED: ENDBRANCH  13  15
DOCKED: ENDBRANCH   6  11
DOCKED: BRANCH   8  19
DOCKED: ATOM     19  C31 MK1 B 902      25.638  -9.091  -3.297 -0.09 -0.07    +0.312 C 
DOCKED: BRANCH  19  20
DOCKED: ATOM     20  C32 MK1 B 902      26.034  -7.716  -2.804 -0.30 -0.00    -0.015 A 
DOCKED: ATOM     21  C33 MK1 B 902      27.381  -7.302  -2.827 -0.18 -0.01    +0.096 A 
DOCKED: ATOM     22  N5  MK1 B 902      27.862  -6.047  -2.392 +0.01 +0.04    -0.375 N 
DOCKED: ATOM     23  C34 MK1 B 902      26.817  -5.224  -1.918 -0.23 +0.01    +0.087 A 
DOCKED: ATOM     24  H5  MK1 B 902      28.843  -5.770  -2.418 -0.44 -0.08    +0.164 HD
DOCKED: ATOM     25  C35 MK1 B 902      25.453  -5.548  -1.858 -0.31 +0.00    +0.018 A 
DOCKED: ATOM     26  C36 MK1 B 902      25.052  -6.819  -2.310 -0.22 +0.00    +0.011 A 
DOCKED: ENDBRANCH  19  20
DOCKED: ENDBRANCH   8  19
DOCKED: ENDBRANCH   4   5
DOCKED: ENDBRANCH   1   4
DOCKED: BRANCH   1  27
DOCKED: ATOM     27  C12 MK1 B 902      27.838 -14.433   0.581 -0.40 -0.03    +0.047 C 
DOCKED: BRANCH  27  28
DOCKED: ATOM     28  C13 MK1 B 902      28.686 -14.079   1.820 -0.34 -0.02    +0.084 C 
DOCKED: BRANCH  28  29
DOCKED: ATOM     29  C14 MK1 B 902      28.070 -14.739   3.081 -0.31 -0.01    +0.052 C 
DOCKED: BRANCH  29  30
DOCKED: ATOM     30  C15 MK1 B 902      26.553 -14.798   3.041 -0.37 +0.01    -0.057 A 
DOCKED: ATOM     31  C16 MK1 B 902      25.843 -16.005   3.289 -0.52 -0.00    +0.007 A 
DOCKED: ATOM     32  C17 MK1 B 902      24.437 -16.048   3.235 -0.46 -0.00    +0.001 A 
DOCKED: ATOM     33  C18 MK1 B 902      23.735 -14.856   2.924 -0.47 -0.00    +0.000 A 
DOCKED: ATOM     34  C19 MK1 B 902      24.429 -13.652   2.678 -0.24 -0.00    +0.001 A 
DOCKED: ATOM     35  C20 MK1 B 902      25.842 -13.616   2.733 -0.38 -0.00    +0.007 A 
DOCKED: ENDBRANCH  29  30
DOCKED: ENDBRANCH  28  29
DOCKED: BRANCH  28  36
DOCKED: ATOM     36  C21 MK1 B 902      30.132 -14.571   1.646 -0.23 -0.04    +0.222 C 
DOCKED: ATOM     37  O3  MK1 B 902      30.692 -14.704   0.551 -0.18 +0.10    -0.273 OA
DOCKED: ATOM     38  N4  MK1 B 902      30.736 -14.871   2.796 +0.03 +0.04    -0.350 N 
DOCKED: ATOM     39  H4  MK1 B 902      30.354 -14.474   3.655 -0.42 -0.05    +0.163 HD
DOCKED: BRANCH  38  40
DOCKED: ATOM     40  C22 MK1 B 902      31.882 -15.711   2.899 -0.21 -0.01    +0.147 C 
DOCKED: ATOM     41  C23 MK1 B 902      33.199 -15.087   2.477 -0.35 +0.02    +0.149 C 
DOCKED: ATOM     42  C24 MK1 B 902      34.076 -16.255   2.112 -0.15 +0.01    +0.073 C 
DOCKED: ATOM     43  C25 MK1 B 902      33.131 -17.311   1.582 -0.26 -0.01    -0.047 A 
DOCKED: ATOM     44  C26 MK1 B 902      33.327 -18.459   0.765 -0.13 +0.00    +0.008 A 
DOCKED: ATOM     45  C30 MK1 B 902      31.806 -16.974   2.061 -0.31 -0.00    -0.027 A 
DOCKED: ATOM     46  C27 MK1 B 902      32.221 -19.258   0.441 -0.15 +0.00    +0.001 A 
DOCKED: ATOM     47  C28 MK1 B 902      30.926 -18.958   0.891 -0.40 -0.00    +0.001 A 
DOCKED: ATOM     48  C29 MK1 B 902      30.737 -17.823   1.696 -0.37 -0.00    +0.010 A 
DOCKED: BRANCH  41  49
DOCKED: ATOM     49  O4  MK1 B 902      33.021 -14.212   1.354 -0.24 -0.03    -0.393 OA
DOCKED: ATOM     50  H4  MK1 B 902      32.330 -14.525   0.782 +0.15 -0.02    +0.210 HD
DOCKED: ENDBRANCH  41  49
DOCKED: ENDBRANCH  38  40
DOCKED: ENDBRANCH  28  36
DOCKED: ENDBRANCH  27  28
DOCKED: ENDBRANCH   1  27
DOCKED: TORSDOF 14
DOCKED: TER
DOCKED: ENDMDL
________________________________________________________________________________

DPF> analysis                             # perform a ranked cluster analysis


		CLUSTER ANALYSIS OF CONFORMATIONS
		_________________________________

Number of conformations = 10

RMSD cluster analysis will be performed using the ligand atoms only (50 / 50 total atoms).

Outputting structurally similar clusters, ranked in order of increasing energy.


________________________________________________________________________________

Number of distinct conformational clusters found = 7,  out of 10 runs,
Using an rmsd-tolerance of 2.0 A


	CLUSTERING HISTOGRAM
	____________________

________________________________________________________________________________
     |           |     |           |     |                                    
Clus | Lowest    | Run | Mean      | Num | Histogram                          
-ter | Binding   |     | Binding   | in  |                                    
Rank | Energy    |     | Energy    | Clus|    5    10   15   20   25   30   35
_____|___________|_____|___________|_____|____:____|____:____|____:____|____:___
   1 |    -11.50 |   1 |    -11.02 |   3 |###
   2 |    -11.48 |   9 |    -10.59 |   2 |##
   3 |     -9.36 |   6 |     -9.36 |   1 |#
   4 |     -6.76 |   4 |     -6.76 |   1 |#
   5 |     -6.68 |   8 |     -6.68 |   1 |#
   6 |     -5.98 |   3 |     -5.98 |   1 |#
   7 |     -3.80 |   5 |     -3.80 |   1 |#
_____|___________|_____|___________|_____|______________________________________


Number of multi-member conformational clusters found = 2, out of 10 runs.

	RMSD TABLE
	__________

_____________________________________________________________________
     |      |      |           |         |                 |
Rank | Sub- | Run  | Binding   | Cluster | Reference       | Grep
     | Rank |      | Energy    | RMSD    | RMSD            | Pattern
_____|______|______|___________|_________|_________________|___________
   1      1      1      -11.50      0.00      3.19           RANKING
   1      2      7      -11.03      1.37      2.78           RANKING
   1      3      2      -10.53      1.61      2.94           RANKING
   2      1      9      -11.48      0.00      1.81           RANKING
   2      2     10       -9.71      1.89      1.94           RANKING
   3      1      6       -9.36      0.00      2.29           RANKING
   4      1      4       -6.76      0.00      3.08           RANKING
   5      1      8       -6.68      0.00      3.18           RANKING
   6      1      3       -5.98      0.00      2.58           RANKING
   7      1      5       -3.80      0.00      3.65           RANKING
_______________________________________________________________________



	INFORMATION ENTROPY ANALYSIS FOR THIS CLUSTERING
	________________________________________________


Information entropy for this clustering = 0.80  (rmstol = 2.00 Angstrom)

_______________________________________________________________________


	STATISTICAL MECHANICAL ANALYSIS
	_______________________________


Partition function, Q =    10.15            at Temperature, T = 298.15 K
Free energy,        A ~ -1372.93 kcal/mol   at Temperature, T = 298.15 K
Internal energy,    U =    -8.69 kcal/mol   at Temperature, T = 298.15 K
Entropy,            S =     4.58 kcal/mol/K at Temperature, T = 298.15 K

_______________________________________________________________________


	LOWEST ENERGY DOCKED CONFORMATION from EACH CLUSTER
	___________________________________________________



Keeping original residue number (specified in the input PDBQ file) for outputting.

MODEL        1
USER    Run = 1
USER    Cluster Rank = 1
USER    Number of conformations in this cluster = 3
USER  
USER    RMSD from reference structure       = 3.185 A
USER  
USER    Estimated Free Energy of Binding    =  -11.50 kcal/mol  [=(1)+(2)+(3)-(4)]
USER    Estimated Inhibition Constant, Ki   =    3.69 nM (nanomolar)  [Temperature = 298.15 K]
USER    
USER    (1) Final Intermolecular Energy     =  -15.68 kcal/mol
USER        vdW + Hbond + desolv Energy     =  -13.79 kcal/mol
USER        Electrostatic Energy            =   -1.89 kcal/mol
USER    (2) Final Total Internal Energy     =   -3.25 kcal/mol
USER    (3) Torsional Free Energy           =   +4.18 kcal/mol
USER    (4) Unbound System's Energy  [=(2)] =   -3.25 kcal/mol
USER    
USER    
USER  
USER    DPF = dock.dpf
USER    NEWDPF move	lig2r5p.pdbqt
USER    NEWDPF about	28.886000 -12.075000 -0.082000
USER    NEWDPF tran0	29.026360 -11.871248 -0.530136
USER    NEWDPF axisangle0	-0.289868 0.404877 0.867209 -125.382325
USER    NEWDPF quaternion0	-0.257561 0.359752 0.770555 -0.458787
USER    NEWDPF dihe0	-146.92 153.02 12.65 -176.58 163.58 -37.42 -178.76 -111.67 -130.95 160.95 -150.95 -14.21 -74.75 -7.07 
USER  
USER                              x       y       z    vdW   Elec        q     RMS 
ATOM      1  C11 MK1 B 902      30.264 -12.889  -1.632 -0.28 -0.14    +0.147     3.185
ATOM      2  O2  MK1 B 902      31.541 -13.282  -2.152 -0.02 +0.41    -0.394     3.185
ATOM      3  H2  MK1 B 902      31.354 -13.963  -2.788 -0.39 -0.49    +0.210     3.185
ATOM      4  C10 MK1 B 902      29.408 -14.173  -1.642 +0.01 -0.51    +0.305     3.185
ATOM      5  N3  MK1 B 902      28.741 -14.370  -0.326 -0.33 -0.10    +0.108     3.185
ATOM      6  C2  MK1 B 902      29.301 -13.429   0.761 -0.16 -0.11    +0.342     3.185
ATOM      7  C1  MK1 B 902      28.507 -13.738   2.035 -0.18 -0.05    +0.318     3.185
ATOM      8  N1  MK1 B 902      27.033 -13.536   1.879 -0.32 -0.02    +0.097     3.185
ATOM      9  C9  MK1 B 902      26.565 -14.393   0.775 +0.01 -0.19    +0.303     3.185
ATOM     10  C8  MK1 B 902      27.286 -14.173  -0.553 +0.14 -0.44    +0.303     3.185
ATOM     11  C3  MK1 B 902      30.783 -13.656   1.042 -0.23 -0.03    +0.253     3.185
ATOM     12  O1  MK1 B 902      31.519 -12.672   1.185 -0.50 -0.06    -0.271     3.185
ATOM     13  N2  MK1 B 902      31.196 -14.941   1.113 -0.09 +0.07    -0.351     3.185
ATOM     14  H2  MK1 B 902      30.486 -15.659   0.968 +0.06 -0.06    +0.163     3.185
ATOM     15  C4  MK1 B 902      32.562 -15.406   1.377 -0.43 -0.00    +0.022     3.185
ATOM     16  C5  MK1 B 902      32.543 -16.889   1.010 -0.40 +0.00    +0.037     3.185
ATOM     17  C6  MK1 B 902      32.884 -15.261   2.859 -0.39 +0.00    +0.037     3.185
ATOM     18  C7  MK1 B 902      33.590 -14.700   0.486 -0.51 -0.00    +0.037     3.185
ATOM     19  C31 MK1 B 902      26.326 -13.831   3.146 +0.14 -0.03    +0.312     3.185
ATOM     20  C32 MK1 B 902      26.572 -15.149   3.848 -0.42 +0.00    -0.015     3.185
ATOM     21  C33 MK1 B 902      25.494 -15.964   4.250 -0.50 -0.01    +0.096     3.185
ATOM     22  N5  MK1 B 902      25.607 -17.207   4.911 -0.22 +0.16    -0.375     3.185
ATOM     23  C34 MK1 B 902      26.956 -17.560   5.131 -0.42 -0.04    +0.087     3.185
ATOM     24  H5  MK1 B 902      24.811 -17.779   5.194 -0.33 -0.16    +0.164     3.185
ATOM     25  C35 MK1 B 902      28.091 -16.818   4.766 -0.41 -0.00    +0.018     3.185
ATOM     26  C36 MK1 B 902      27.895 -15.588   4.110 -0.39 -0.00    +0.011     3.185
ATOM     27  C12 MK1 B 902      29.716 -11.757  -2.533 -0.37 -0.04    +0.047     3.185
ATOM     28  C13 MK1 B 902      30.454 -10.410  -2.385 -0.31 -0.03    +0.084     3.185
ATOM     29  C14 MK1 B 902      31.391 -10.192  -3.601 -0.37 -0.01    +0.052     3.185
ATOM     30  C15 MK1 B 902      31.433  -8.748  -4.070 -0.33 +0.01    -0.057     3.185
ATOM     31  C16 MK1 B 902      31.003  -8.369  -5.371 -0.43 -0.00    +0.007     3.185
ATOM     32  C17 MK1 B 902      31.061  -7.029  -5.796 -0.43 -0.00    +0.001     3.185
ATOM     33  C18 MK1 B 902      31.561  -6.054  -4.897 -0.40 -0.00    +0.000     3.185
ATOM     34  C19 MK1 B 902      31.990  -6.418  -3.602 -0.40 -0.00    +0.001     3.185
ATOM     35  C20 MK1 B 902      31.929  -7.768  -3.181 -0.41 -0.00    +0.007     3.185
ATOM     36  C21 MK1 B 902      29.451  -9.248  -2.303 -0.19 -0.06    +0.222     3.185
ATOM     37  O3  MK1 B 902      29.325  -8.509  -1.320 -0.19 +0.05    -0.273     3.185
ATOM     38  N4  MK1 B 902      28.697  -9.116  -3.395 -0.09 +0.13    -0.350     3.185
ATOM     39  H4  MK1 B 902      29.031  -9.539  -4.262 +0.01 -0.07    +0.163     3.185
ATOM     40  C22 MK1 B 902      27.454  -8.421  -3.425 -0.22 -0.04    +0.147     3.185
ATOM     41  C23 MK1 B 902      27.531  -6.946  -3.776 -0.23 -0.01    +0.149     3.185
ATOM     42  C24 MK1 B 902      26.283  -6.347  -3.183 -0.27 +0.02    +0.073     3.185
ATOM     43  C25 MK1 B 902      25.988  -7.180  -1.955 -0.29 -0.00    -0.047     3.185
ATOM     44  C26 MK1 B 902      25.204  -6.940  -0.791 -0.35 +0.00    +0.008     3.185
ATOM     45  C30 MK1 B 902      26.701  -8.431  -2.108 -0.26 +0.00    -0.027     3.185
ATOM     46  C27 MK1 B 902      25.129  -7.935   0.193 -0.54 +0.00    +0.001     3.185
ATOM     47  C28 MK1 B 902      25.808  -9.159   0.072 -0.35 -0.00    +0.001     3.185
ATOM     48  C29 MK1 B 902      26.581  -9.390  -1.077 -0.34 -0.00    +0.010     3.185
ATOM     49  O4  MK1 B 902      28.704  -6.341  -3.214 -0.05 +0.09    -0.393     3.185
ATOM     50  H4  MK1 B 902      28.985  -6.800  -2.432 -0.43 -0.10    +0.210     3.185
TER
ENDMDL
MODEL        9
USER    Run = 9
USER    Cluster Rank = 2
USER    Number of conformations in this cluster = 2
USER  
USER    RMSD from reference structure       = 1.809 A
USER  
USER    Estimated Free Energy of Binding    =  -11.48 kcal/mol  [=(1)+(2)+(3)-(4)]
USER    Estimated Inhibition Constant, Ki   =    3.82 nM (nanomolar)  [Temperature = 298.15 K]
USER    
USER    (1) Final Intermolecular Energy     =  -15.66 kcal/mol
USER        vdW + Hbond + desolv Energy     =  -14.21 kcal/mol
USER        Electrostatic Energy            =   -1.45 kcal/mol
USER    (2) Final Total Internal Energy     =   -3.95 kcal/mol
USER    (3) Torsional Free Energy           =   +4.18 kcal/mol
USER    (4) Unbound System's Energy  [=(2)] =   -3.95 kcal/mol
USER    
USER    
USER  
USER    DPF = dock.dpf
USER    NEWDPF move	lig2r5p.pdbqt
USER    NEWDPF about	28.886000 -12.075000 -0.082000
USER    NEWDPF tran0	32.791102 -13.193926 -0.215907
USER    NEWDPF axisangle0	-0.596202 0.342380 -0.726168 -140.338628
USER    NEWDPF quaternion0	-0.560846 0.322076 -0.683106 -0.339242
USER    NEWDPF dihe0	-80.15 166.73 -122.73 -149.72 -143.18 -104.24 -6.50 -75.35 -134.42 180.00 -19.63 -141.95 -56.83 -165.11 
USER  
USER                              x       y       z    vdW   Elec        q     RMS 
ATOM      1  C11 MK1 B 902      31.181 -12.233   0.301 -0.30 +0.00    +0.147     1.809
ATOM      2  O2  MK1 B 902      30.414 -11.201   0.935 -0.94 -0.12    -0.394     1.809
ATOM      3  H2  MK1 B 902      29.930 -11.636   1.626 +0.11 +0.06    +0.210     1.809
ATOM      4  C10 MK1 B 902      30.391 -12.604  -0.972 -0.17 -0.17    +0.305     1.809
ATOM      5  N3  MK1 B 902      29.195 -11.731  -1.120 -0.21 -0.06    +0.108     1.809
ATOM      6  C2  MK1 B 902      29.226 -10.912  -2.427 -0.15 -0.21    +0.342     1.809
ATOM      7  C1  MK1 B 902      27.933 -10.090  -2.442 -0.14 -0.16    +0.318     1.809
ATOM      8  N1  MK1 B 902      26.696 -10.930  -2.382 -0.33 -0.09    +0.097     1.809
ATOM      9  C9  MK1 B 902      26.756 -11.753  -1.160 -0.10 -0.31    +0.303     1.809
ATOM     10  C8  MK1 B 902      28.007 -12.620  -1.036 -0.18 -0.33    +0.303     1.809
ATOM     11  C3  MK1 B 902      30.413  -9.956  -2.505 -0.20 -0.07    +0.253     1.809
ATOM     12  O1  MK1 B 902      30.633  -9.201  -1.550 -0.24 +0.03    -0.271     1.809
ATOM     13  N2  MK1 B 902      31.152 -10.001  -3.636 -0.10 +0.10    -0.351     1.809
ATOM     14  H2  MK1 B 902      30.857 -10.665  -4.351 +0.12 -0.06    +0.163     1.809
ATOM     15  C4  MK1 B 902      32.336  -9.189  -3.937 -0.47 -0.00    +0.022     1.809
ATOM     16  C5  MK1 B 902      33.317  -9.502  -2.809 -0.49 -0.00    +0.037     1.809
ATOM     17  C6  MK1 B 902      31.978  -7.709  -3.893 -0.45 -0.01    +0.037     1.809
ATOM     18  C7  MK1 B 902      32.984  -9.592  -5.267 -0.61 -0.01    +0.037     1.809
ATOM     19  C31 MK1 B 902      25.483 -10.082  -2.418 -0.15 -0.14    +0.312     1.809
ATOM     20  C32 MK1 B 902      25.603  -8.598  -2.146 -0.31 +0.00    -0.015     1.809
ATOM     21  C33 MK1 B 902      25.778  -8.117  -0.832 -0.36 -0.00    +0.096     1.809
ATOM     22  N5  MK1 B 902      25.899  -6.759  -0.464 -0.18 -0.04    -0.375     1.809
ATOM     23  C34 MK1 B 902      25.826  -5.906  -1.587 -0.28 +0.02    +0.087     1.809
ATOM     24  H5  MK1 B 902      26.024  -6.435   0.495 +0.09 +0.02    +0.164     1.809
ATOM     25  C35 MK1 B 902      25.655  -6.291  -2.926 -0.28 +0.01    +0.018     1.809
ATOM     26  C36 MK1 B 902      25.542  -7.664  -3.212 -0.33 +0.00    +0.011     1.809
ATOM     27  C12 MK1 B 902      31.333 -13.395   1.312 -0.29 +0.00    +0.047     1.809
ATOM     28  C13 MK1 B 902      30.983 -14.786   0.742 -0.32 -0.02    +0.084     1.809
ATOM     29  C14 MK1 B 902      32.207 -15.729   0.878 -0.38 -0.01    +0.052     1.809
ATOM     30  C15 MK1 B 902      32.430 -16.214   2.299 -0.30 -0.00    -0.057     1.809
ATOM     31  C16 MK1 B 902      33.268 -15.512   3.209 -0.37 +0.00    +0.007     1.809
ATOM     32  C17 MK1 B 902      33.477 -15.981   4.519 -0.33 +0.00    +0.001     1.809
ATOM     33  C18 MK1 B 902      32.832 -17.178   4.921 -0.27 +0.00    +0.000     1.809
ATOM     34  C19 MK1 B 902      31.997 -17.883   4.027 -0.15 +0.00    +0.001     1.809
ATOM     35  C20 MK1 B 902      31.792 -17.406   2.711 -0.31 +0.00    +0.007     1.809
ATOM     36  C21 MK1 B 902      29.789 -15.395   1.493 -0.21 -0.07    +0.222     1.809
ATOM     37  O3  MK1 B 902      28.841 -15.967   0.941 +0.00 +0.17    -0.273     1.809
ATOM     38  N4  MK1 B 902      29.849 -15.230   2.815 -0.11 +0.07    -0.350     1.809
ATOM     39  H4  MK1 B 902      30.759 -15.028   3.231 -0.37 -0.04    +0.163     1.809
ATOM     40  C22 MK1 B 902      28.722 -15.320   3.681 -0.18 -0.03    +0.147     1.809
ATOM     41  C23 MK1 B 902      28.391 -16.710   4.193 -0.35 -0.03    +0.149     1.809
ATOM     42  C24 MK1 B 902      26.928 -16.648   4.546 -0.51 -0.01    +0.073     1.809
ATOM     43  C25 MK1 B 902      26.328 -15.651   3.579 -0.44 +0.00    -0.047     1.809
ATOM     44  C26 MK1 B 902      24.994 -15.411   3.145 -0.57 -0.00    +0.008     1.809
ATOM     45  C30 MK1 B 902      27.418 -14.853   3.060 -0.33 +0.00    -0.027     1.809
ATOM     46  C27 MK1 B 902      24.757 -14.388   2.216 -0.49 -0.00    +0.001     1.809
ATOM     47  C28 MK1 B 902      25.794 -13.597   1.696 -0.30 -0.00    +0.001     1.809
ATOM     48  C29 MK1 B 902      27.108 -13.838   2.126 -0.33 -0.00    +0.010     1.809
ATOM     49  O4  MK1 B 902      28.631 -17.703   3.186 -0.73 +0.10    -0.393     1.809
ATOM     50  H4  MK1 B 902      28.755 -17.303   2.333 +0.09 -0.05    +0.210     1.809
TER
ENDMDL
MODEL        6
USER    Run = 6
USER    Cluster Rank = 3
USER    Number of conformations in this cluster = 1
USER  
USER    RMSD from reference structure       = 2.289 A
USER  
USER    Estimated Free Energy of Binding    =   -9.36 kcal/mol  [=(1)+(2)+(3)-(4)]
USER    Estimated Inhibition Constant, Ki   =  137.50 nM (nanomolar)  [Temperature = 298.15 K]
USER    
USER    (1) Final Intermolecular Energy     =  -13.54 kcal/mol
USER        vdW + Hbond + desolv Energy     =  -12.75 kcal/mol
USER        Electrostatic Energy            =   -0.78 kcal/mol
USER    (2) Final Total Internal Energy     =   -2.20 kcal/mol
USER    (3) Torsional Free Energy           =   +4.18 kcal/mol
USER    (4) Unbound System's Energy  [=(2)] =   -2.20 kcal/mol
USER    
USER    
USER  
USER    DPF = dock.dpf
USER    NEWDPF move	lig2r5p.pdbqt
USER    NEWDPF about	28.886000 -12.075000 -0.082000
USER    NEWDPF tran0	27.668076 -9.702782 -1.084769
USER    NEWDPF axisangle0	-0.167201 -0.494375 -0.853017 -63.666828
USER    NEWDPF quaternion0	-0.088190 -0.260759 -0.449925 -0.849585
USER    NEWDPF dihe0	-57.10 115.20 70.63 -53.93 -151.27 -129.37 -171.97 -177.12 10.85 -66.89 61.13 -26.54 -151.45 -135.15 
USER  
USER                              x       y       z    vdW   Elec        q     RMS 
ATOM      1  C11 MK1 B 902      27.190 -10.753  -2.650 -0.29 -0.12    +0.147     2.289
ATOM      2  O2  MK1 B 902      26.312 -11.426  -3.562 +0.07 +0.52    -0.394     2.289
ATOM      3  H2  MK1 B 902      26.226 -12.309  -3.223 -0.16 -0.52    +0.210     2.289
ATOM      4  C10 MK1 B 902      28.362 -10.243  -3.515 +0.07 -0.20    +0.305     2.289
ATOM      5  N3  MK1 B 902      28.445  -8.758  -3.464 -0.22 -0.04    +0.108     2.289
ATOM      6  C2  MK1 B 902      29.234  -8.175  -4.654 -0.19 -0.09    +0.342     2.289
ATOM      7  C1  MK1 B 902      29.212  -6.653  -4.470 -0.16 -0.09    +0.318     2.289
ATOM      8  N1  MK1 B 902      27.831  -6.081  -4.429 -0.23 -0.01    +0.097     2.289
ATOM      9  C9  MK1 B 902      27.094  -6.731  -3.330 -0.14 +0.01    +0.303     2.289
ATOM     10  C8  MK1 B 902      27.047  -8.256  -3.409 -0.14 -0.06    +0.303     2.289
ATOM     11  C3  MK1 B 902      30.686  -8.641  -4.695 -0.26 -0.05    +0.253     2.289
ATOM     12  O1  MK1 B 902      31.216  -8.844  -5.794 -0.94 +0.02    -0.271     2.289
ATOM     13  N2  MK1 B 902      31.301  -8.806  -3.503 -0.10 +0.07    -0.351     2.289
ATOM     14  H2  MK1 B 902      30.747  -8.611  -2.670 +0.08 -0.04    +0.163     2.289
ATOM     15  C4  MK1 B 902      32.688  -9.237  -3.289 -0.48 -0.00    +0.022     2.289
ATOM     16  C5  MK1 B 902      32.570 -10.656  -2.736 -0.39 -0.01    +0.037     2.289
ATOM     17  C6  MK1 B 902      33.355  -8.347  -2.248 -0.53 +0.00    +0.037     2.289
ATOM     18  C7  MK1 B 902      33.480  -9.293  -4.601 -0.55 -0.00    +0.037     2.289
ATOM     19  C31 MK1 B 902      27.877  -4.610  -4.268 -0.09 +0.04    +0.312     2.289
ATOM     20  C32 MK1 B 902      27.275  -3.976  -3.032 -0.19 -0.00    -0.015     2.289
ATOM     21  C33 MK1 B 902      25.895  -3.692  -2.967 -0.14 +0.04    +0.096     2.289
ATOM     22  N5  MK1 B 902      25.230  -3.103  -1.869 -0.06 -0.10    -0.375     2.289
ATOM     23  C34 MK1 B 902      26.120  -2.821  -0.810 -0.18 +0.02    +0.087     2.289
ATOM     24  H5  MK1 B 902      24.229  -2.906  -1.845 +0.05 +0.04    +0.164     2.289
ATOM     25  C35 MK1 B 902      27.501  -3.068  -0.783 -0.32 +0.00    +0.018     2.289
ATOM     26  C36 MK1 B 902      28.091  -3.658  -1.917 -0.26 +0.00    +0.011     2.289
ATOM     27  C12 MK1 B 902      27.605 -11.769  -1.559 -0.35 -0.05    +0.047     2.289
ATOM     28  C13 MK1 B 902      28.881 -11.385  -0.782 -0.29 -0.04    +0.084     2.289
ATOM     29  C14 MK1 B 902      29.047  -9.843  -0.780 -0.34 -0.01    +0.052     2.289
ATOM     30  C15 MK1 B 902      27.787  -9.109  -0.356 -0.33 +0.00    -0.057     2.289
ATOM     31  C16 MK1 B 902      26.629  -9.803   0.090 -0.07 -0.00    +0.007     2.289
ATOM     32  C17 MK1 B 902      25.463  -9.109   0.467 -0.09 -0.00    +0.001     2.289
ATOM     33  C18 MK1 B 902      25.463  -7.693   0.391 -0.51 +0.00    +0.000     2.289
ATOM     34  C19 MK1 B 902      26.608  -6.994  -0.050 -0.46 +0.00    +0.001     2.289
ATOM     35  C20 MK1 B 902      27.776  -7.697  -0.427 -0.22 -0.00    +0.007     2.289
ATOM     36  C21 MK1 B 902      28.805 -11.888   0.668 -0.28 -0.03    +0.222     2.289
ATOM     37  O3  MK1 B 902      28.692 -11.150   1.653 -0.47 -0.06    -0.273     2.289
ATOM     38  N4  MK1 B 902      28.898 -13.214   0.779 -0.11 +0.12    -0.350     2.289
ATOM     39  H4  MK1 B 902      28.694 -13.779  -0.046 +0.11 -0.12    +0.163     2.289
ATOM     40  C22 MK1 B 902      29.265 -13.889   1.978 -0.30 -0.02    +0.147     2.289
ATOM     41  C23 MK1 B 902      30.409 -14.879   1.856 -0.26 -0.03    +0.149     2.289
ATOM     42  C24 MK1 B 902      30.212 -15.834   3.003 -0.14 -0.02    +0.073     2.289
ATOM     43  C25 MK1 B 902      28.716 -15.891   3.221 -0.32 +0.01    -0.047     2.289
ATOM     44  C26 MK1 B 902      27.870 -16.834   3.871 -0.42 -0.00    +0.008     2.289
ATOM     45  C30 MK1 B 902      28.150 -14.713   2.597 -0.33 +0.00    -0.027     2.289
ATOM     46  C27 MK1 B 902      26.488 -16.596   3.902 -0.52 -0.00    +0.001     2.289
ATOM     47  C28 MK1 B 902      25.911 -15.463   3.308 -0.50 -0.00    +0.001     2.289
ATOM     48  C29 MK1 B 902      26.749 -14.537   2.666 -0.37 -0.00    +0.010     2.289
ATOM     49  O4  MK1 B 902      30.360 -15.573   0.601 -0.10 +0.20    -0.393     2.289
ATOM     50  H4  MK1 B 902      29.582 -16.114   0.539 -0.31 -0.17    +0.210     2.289
TER
ENDMDL
MODEL        4
USER    Run = 4
USER    Cluster Rank = 4
USER    Number of conformations in this cluster = 1
USER  
USER    RMSD from reference structure       = 3.082 A
USER  
USER    Estimated Free Energy of Binding    =   -6.76 kcal/mol  [=(1)+(2)+(3)-(4)]
USER    Estimated Inhibition Constant, Ki   =   11.14 uM (micromolar)  [Temperature = 298.15 K]
USER    
USER    (1) Final Intermolecular Energy     =  -10.93 kcal/mol
USER        vdW + Hbond + desolv Energy     =   -8.22 kcal/mol
USER        Electrostatic Energy            =   -2.72 kcal/mol
USER    (2) Final Total Internal Energy     =   -2.39 kcal/mol
USER    (3) Torsional Free Energy           =   +4.18 kcal/mol
USER    (4) Unbound System's Energy  [=(2)] =   -2.39 kcal/mol
USER    
USER    
USER  
USER    DPF = dock.dpf
USER    NEWDPF move	lig2r5p.pdbqt
USER    NEWDPF about	28.886000 -12.075000 -0.082000
USER    NEWDPF tran0	29.527922 -13.788027 0.317830
USER    NEWDPF axisangle0	-0.012598 -0.391119 -0.920254 66.823640
USER    NEWDPF quaternion0	-0.006937 -0.215371 -0.506741 0.834734
USER    NEWDPF dihe0	-147.77 -76.71 11.83 93.37 55.81 125.77 179.89 -67.39 -119.99 -79.28 -177.95 70.91 55.53 -33.94 
USER  
USER                              x       y       z    vdW   Elec        q     RMS 
ATOM      1  C11 MK1 B 902      29.797 -14.899  -1.255 -0.11 -0.20    +0.147     3.082
ATOM      2  O2  MK1 B 902      30.374 -15.956  -2.033 +0.36 +0.67    -0.394     3.082
ATOM      3  H2  MK1 B 902      29.951 -15.903  -2.882 +0.06 -0.65    +0.210     3.082
ATOM      4  C10 MK1 B 902      28.346 -14.766  -1.762 +0.09 -0.64    +0.305     3.082
ATOM      5  N3  MK1 B 902      27.917 -13.342  -1.758 -0.19 -0.21    +0.108     3.082
ATOM      6  C2  MK1 B 902      28.445 -12.574  -0.529 -0.15 -0.25    +0.342     3.082
ATOM      7  C1  MK1 B 902      27.940 -11.135  -0.681 -0.17 -0.14    +0.318     3.082
ATOM      8  N1  MK1 B 902      28.398 -10.476  -1.943 -0.22 -0.05    +0.097     3.082
ATOM      9  C9  MK1 B 902      27.941 -11.293  -3.082 -0.13 -0.32    +0.303     3.082
ATOM     10  C8  MK1 B 902      28.386 -12.753  -3.040 -0.21 -0.60    +0.303     3.082
ATOM     11  C3  MK1 B 902      27.929 -13.135   0.793 -0.25 -0.11    +0.253     3.082
ATOM     12  O1  MK1 B 902      28.723 -13.272   1.732 -0.23 +0.04    -0.271     3.082
ATOM     13  N2  MK1 B 902      26.616 -13.452   0.844 -0.17 +0.20    -0.351     3.082
ATOM     14  H2  MK1 B 902      26.073 -13.296  -0.005 -0.06 -0.18    +0.163     3.082
ATOM     15  C4  MK1 B 902      25.894 -13.996   2.000 -0.49 -0.01    +0.022     3.082
ATOM     16  C5  MK1 B 902      24.555 -14.465   1.433 +0.49 -0.01    +0.037     3.082
ATOM     17  C6  MK1 B 902      25.647 -12.897   3.025 +0.41 -0.00    +0.037     3.082
ATOM     18  C7  MK1 B 902      26.613 -15.208   2.606 -0.44 -0.01    +0.037     3.082
ATOM     19  C31 MK1 B 902      27.895  -9.086  -2.023 -0.13 -0.08    +0.312     3.082
ATOM     20  C32 MK1 B 902      26.900  -8.593  -0.995 -0.35 +0.00    -0.015     3.082
ATOM     21  C33 MK1 B 902      27.179  -7.457  -0.208 -0.34 -0.00    +0.096     3.082
ATOM     22  N5  MK1 B 902      26.328  -6.913   0.779 -0.05 -0.04    -0.375     3.082
ATOM     23  C34 MK1 B 902      25.129  -7.648   0.896 +0.03 +0.01    +0.087     3.082
ATOM     24  H5  MK1 B 902      26.552  -6.089   1.337 +0.13 +0.01    +0.164     3.082
ATOM     25  C35 MK1 B 902      24.763  -8.785   0.159 -0.32 -0.00    +0.018     3.082
ATOM     26  C36 MK1 B 902      25.666  -9.268  -0.807 -0.37 -0.00    +0.011     3.082
ATOM     27  C12 MK1 B 902      30.660 -13.632  -1.469 -0.28 -0.05    +0.047     3.082
ATOM     28  C13 MK1 B 902      31.692 -13.367  -0.354 -0.31 -0.02    +0.084     3.082
ATOM     29  C14 MK1 B 902      31.504 -11.932   0.201 -0.09 +0.00    +0.052     3.082
ATOM     30  C15 MK1 B 902      31.564 -10.863  -0.876 -0.22 +0.00    -0.057     3.082
ATOM     31  C16 MK1 B 902      30.876  -9.626  -0.744 -0.33 +0.00    +0.007     3.082
ATOM     32  C17 MK1 B 902      30.929  -8.650  -1.758 -0.29 -0.00    +0.001     3.082
ATOM     33  C18 MK1 B 902      31.687  -8.926  -2.924 -0.37 -0.00    +0.000     3.082
ATOM     34  C19 MK1 B 902      32.376 -10.150  -3.065 -0.41 -0.00    +0.001     3.082
ATOM     35  C20 MK1 B 902      32.318 -11.127  -2.042 -0.09 -0.00    +0.007     3.082
ATOM     36  C21 MK1 B 902      31.526 -14.380   0.790 -0.26 -0.04    +0.222     3.082
ATOM     37  O3  MK1 B 902      31.323 -14.066   1.969 -0.12 -0.02    -0.273     3.082
ATOM     38  N4  MK1 B 902      31.645 -15.650   0.401 -0.11 +0.10    -0.350     3.082
ATOM     39  H4  MK1 B 902      31.515 -15.861  -0.588 +0.08 -0.09    +0.163     3.082
ATOM     40  C22 MK1 B 902      31.942 -16.728   1.283 -0.29 -0.01    +0.147     3.082
ATOM     41  C23 MK1 B 902      30.763 -17.596   1.685 -0.31 -0.03    +0.149     3.082
ATOM     42  C24 MK1 B 902      31.177 -18.222   2.991 -0.10 +0.01    +0.073     3.082
ATOM     43  C25 MK1 B 902      32.079 -17.202   3.652 -0.26 -0.01    -0.047     3.082
ATOM     44  C26 MK1 B 902      32.495 -17.011   5.000 -0.17 +0.00    +0.008     3.082
ATOM     45  C30 MK1 B 902      32.535 -16.302   2.613 -0.32 -0.00    -0.027     3.082
ATOM     46  C27 MK1 B 902      33.356 -15.946   5.299 -0.17 +0.00    +0.001     3.082
ATOM     47  C28 MK1 B 902      33.816 -15.058   4.313 -0.08 +0.00    +0.001     3.082
ATOM     48  C29 MK1 B 902      33.402 -15.249   2.986 -0.34 +0.00    +0.010     3.082
ATOM     49  O4  MK1 B 902      29.574 -16.810   1.851 -0.16 +0.14    -0.393     3.082
ATOM     50  H4  MK1 B 902      28.991 -16.911   1.108 -0.44 -0.15    +0.210     3.082
TER
ENDMDL
MODEL        8
USER    Run = 8
USER    Cluster Rank = 5
USER    Number of conformations in this cluster = 1
USER  
USER    RMSD from reference structure       = 3.176 A
USER  
USER    Estimated Free Energy of Binding    =   -6.68 kcal/mol  [=(1)+(2)+(3)-(4)]
USER    Estimated Inhibition Constant, Ki   =   12.71 uM (micromolar)  [Temperature = 298.15 K]
USER    
USER    (1) Final Intermolecular Energy     =  -10.86 kcal/mol
USER        vdW + Hbond + desolv Energy     =   -9.97 kcal/mol
USER        Electrostatic Energy            =   -0.88 kcal/mol
USER    (2) Final Total Internal Energy     =   -2.45 kcal/mol
USER    (3) Torsional Free Energy           =   +4.18 kcal/mol
USER    (4) Unbound System's Energy  [=(2)] =   -2.45 kcal/mol
USER    
USER    
USER  
USER    DPF = dock.dpf
USER    NEWDPF move	lig2r5p.pdbqt
USER    NEWDPF about	28.886000 -12.075000 -0.082000
USER    NEWDPF tran0	30.949341 -11.019830 -1.677123
USER    NEWDPF axisangle0	0.578405 -0.245442 0.777950 96.854621
USER    NEWDPF quaternion0	0.432713 -0.183619 0.581995 0.663570
USER    NEWDPF dihe0	39.69 82.73 111.03 -65.03 -96.18 111.87 165.93 -21.19 9.38 -87.65 -156.56 -45.82 174.40 -36.16 
USER  
USER                              x       y       z    vdW   Elec        q     RMS 
ATOM      1  C11 MK1 B 902      29.020 -11.259  -1.731 -0.25 -0.09    +0.147     3.176
ATOM      2  O2  MK1 B 902      27.663 -11.086  -1.302 -0.10 +0.24    -0.394     3.176
ATOM      3  H2  MK1 B 902      27.697 -10.430  -0.617 +0.13 -0.06    +0.210     3.176
ATOM      4  C10 MK1 B 902      28.947 -11.407  -3.265 -0.21 -0.29    +0.305     3.176
ATOM      5  N3  MK1 B 902      29.275 -10.119  -3.933 -0.25 -0.05    +0.108     3.176
ATOM      6  C2  MK1 B 902      29.175  -8.917  -2.970 -0.12 -0.10    +0.342     3.176
ATOM      7  C1  MK1 B 902      29.558  -7.683  -3.794 -0.14 -0.08    +0.318     3.176
ATOM      8  N1  MK1 B 902      30.931  -7.766  -4.382 -0.29 -0.02    +0.097     3.176
ATOM      9  C9  MK1 B 902      30.999  -8.973  -5.224 -0.13 -0.04    +0.303     3.176
ATOM     10  C8  MK1 B 902      30.638 -10.273  -4.507 +1.53 -0.09    +0.303     3.176
ATOM     11  C3  MK1 B 902      27.769  -8.715  -2.412 -0.15 -0.06    +0.253     3.176
ATOM     12  O1  MK1 B 902      27.608  -8.731  -1.186 -0.20 +0.04    -0.271     3.176
ATOM     13  N2  MK1 B 902      26.781  -8.533  -3.315 -0.08 +0.08    -0.351     3.176
ATOM     14  H2  MK1 B 902      27.050  -8.549  -4.299 -0.09 -0.06    +0.163     3.176
ATOM     15  C4  MK1 B 902      25.360  -8.313  -3.022 -0.37 +0.00    +0.022     3.176
ATOM     16  C5  MK1 B 902      24.875  -9.640  -2.441 -0.04 -0.01    +0.037     3.176
ATOM     17  C6  MK1 B 902      24.601  -8.022  -4.310 -0.11 +0.01    +0.037     3.176
ATOM     18  C7  MK1 B 902      25.156  -7.219  -1.966 -0.24 +0.01    +0.037     3.176
ATOM     19  C31 MK1 B 902      31.248  -6.539  -5.148 -0.27 -0.15    +0.312     3.176
ATOM     20  C32 MK1 B 902      30.791  -5.194  -4.626 -0.36 +0.00    -0.015     3.176
ATOM     21  C33 MK1 B 902      29.627  -5.085  -3.838 -0.17 -0.01    +0.096     3.176
ATOM     22  N5  MK1 B 902      29.109  -3.886  -3.301 -0.10 -0.03    -0.375     3.176
ATOM     23  C34 MK1 B 902      29.906  -2.773  -3.647 -0.18 +0.02    +0.087     3.176
ATOM     24  H5  MK1 B 902      28.264  -3.831  -2.734 +0.05 +0.02    +0.164     3.176
ATOM     25  C35 MK1 B 902      31.077  -2.784  -4.422 -0.30 +0.00    +0.018     3.176
ATOM     26  C36 MK1 B 902      31.529  -4.020  -4.921 -0.34 -0.00    +0.011     3.176
ATOM     27  C12 MK1 B 902      29.589 -12.501  -1.003 -0.32 -0.03    +0.047     3.176
ATOM     28  C13 MK1 B 902      30.476 -12.175   0.217 -0.37 -0.01    +0.084     3.176
ATOM     29  C14 MK1 B 902      30.711 -10.644   0.296 -0.45 +0.01    +0.052     3.176
ATOM     30  C15 MK1 B 902      31.585 -10.116  -0.828 -0.25 -0.00    -0.057     3.176
ATOM     31  C16 MK1 B 902      32.222 -10.986  -1.755 -0.06 -0.00    +0.007     3.176
ATOM     32  C17 MK1 B 902      33.040 -10.484  -2.784 -0.34 -0.00    +0.001     3.176
ATOM     33  C18 MK1 B 902      33.222  -9.080  -2.880 -0.47 -0.00    +0.000     3.176
ATOM     34  C19 MK1 B 902      32.593  -8.207  -1.966 -0.49 -0.00    +0.001     3.176
ATOM     35  C20 MK1 B 902      31.772  -8.719  -0.934 -0.13 +0.00    +0.007     3.176
ATOM     36  C21 MK1 B 902      29.809 -12.653   1.516 -0.26 +0.01    +0.222     3.176
ATOM     37  O3  MK1 B 902      29.690 -11.957   2.531 +0.09 -0.09    -0.273     3.176
ATOM     38  N4  MK1 B 902      29.382 -13.915   1.464 -0.12 +0.08    -0.350     3.176
ATOM     39  H4  MK1 B 902      29.236 -14.334   0.544 +0.10 -0.08    +0.163     3.176
ATOM     40  C22 MK1 B 902      29.118 -14.715   2.613 -0.29 -0.03    +0.147     3.176
ATOM     41  C23 MK1 B 902      29.784 -16.079   2.636 -0.27 -0.04    +0.149     3.176
ATOM     42  C24 MK1 B 902      28.930 -16.905   3.561 -0.37 -0.02    +0.073     3.176
ATOM     43  C25 MK1 B 902      27.528 -16.360   3.401 -0.39 +0.01    -0.047     3.176
ATOM     44  C26 MK1 B 902      26.243 -16.898   3.693 -0.47 -0.00    +0.008     3.176
ATOM     45  C30 MK1 B 902      27.650 -15.036   2.826 -0.35 +0.00    -0.027     3.176
ATOM     46  C27 MK1 B 902      25.106 -16.124   3.423 -0.57 -0.00    +0.001     3.176
ATOM     47  C28 MK1 B 902      25.193 -14.837   2.867 -0.53 -0.00    +0.001     3.176
ATOM     48  C29 MK1 B 902      26.462 -14.311   2.579 -0.39 -0.00    +0.010     3.176
ATOM     49  O4  MK1 B 902      29.822 -16.658   1.323 -0.03 +0.19    -0.393     3.176
ATOM     50  H4  MK1 B 902      29.103 -17.265   1.196 -0.47 -0.14    +0.210     3.176
TER
ENDMDL
MODEL        3
USER    Run = 3
USER    Cluster Rank = 6
USER    Number of conformations in this cluster = 1
USER  
USER    RMSD from reference structure       = 2.580 A
USER  
USER    Estimated Free Energy of Binding    =   -5.98 kcal/mol  [=(1)+(2)+(3)-(4)]
USER    Estimated Inhibition Constant, Ki   =   41.03 uM (micromolar)  [Temperature = 298.15 K]
USER    
USER    (1) Final Intermolecular Energy     =  -10.16 kcal/mol
USER        vdW + Hbond + desolv Energy     =   -9.00 kcal/mol
USER        Electrostatic Energy            =   -1.16 kcal/mol
USER    (2) Final Total Internal Energy     =   -4.50 kcal/mol
USER    (3) Torsional Free Energy           =   +4.18 kcal/mol
USER    (4) Unbound System's Energy  [=(2)] =   -4.50 kcal/mol
USER    
USER    
USER  
USER    DPF = dock.dpf
USER    NEWDPF move	lig2r5p.pdbqt
USER    NEWDPF about	28.886000 -12.075000 -0.082000
USER    NEWDPF tran0	25.960782 -9.998049 -1.130392
USER    NEWDPF axisangle0	0.720653 0.691046 -0.055807 73.053491
USER    NEWDPF quaternion0	0.428931 0.411309 -0.033216 0.803579
USER    NEWDPF dihe0	179.59 -70.80 -127.09 -1.00 179.71 139.73 122.85 -78.15 20.70 -57.09 30.72 34.19 -50.02 172.91 
USER  
USER                              x       y       z    vdW   Elec        q     RMS 
ATOM      1  C11 MK1 B 902      26.510 -11.856  -0.958 -0.08 -0.15    +0.147     2.580
ATOM      2  O2  MK1 B 902      26.388 -13.231  -0.573 +0.47 +0.66    -0.394     2.580
ATOM      3  H2  MK1 B 902      26.851 -13.722  -1.242 -0.37 -0.58    +0.210     2.580
ATOM      4  C10 MK1 B 902      27.341 -11.869  -2.258 -0.04 -0.42    +0.305     2.580
ATOM      5  N3  MK1 B 902      27.528 -10.487  -2.777 -0.27 -0.08    +0.108     2.580
ATOM      6  C2  MK1 B 902      28.554 -10.427  -3.927 +0.71 -0.26    +0.342     2.580
ATOM      7  C1  MK1 B 902      28.617  -8.958  -4.360 -0.06 -0.13    +0.318     2.580
ATOM      8  N1  MK1 B 902      27.298  -8.415  -4.809 -0.21 -0.04    +0.097     2.580
ATOM      9  C9  MK1 B 902      26.334  -8.573  -3.705 -0.16 -0.07    +0.303     2.580
ATOM     10  C8  MK1 B 902      26.184 -10.003  -3.188 -0.02 -0.18    +0.303     2.580
ATOM     11  C3  MK1 B 902      29.951 -10.872  -3.506 -0.17 -0.15    +0.253     2.580
ATOM     12  O1  MK1 B 902      30.188 -12.083  -3.416 -0.28 +0.33    -0.271     2.580
ATOM     13  N2  MK1 B 902      30.847  -9.893  -3.253 -0.09 +0.10    -0.351     2.580
ATOM     14  H2  MK1 B 902      30.519  -8.933  -3.358 +0.10 -0.04    +0.163     2.580
ATOM     15  C4  MK1 B 902      32.244 -10.073  -2.842 -0.44 -0.00    +0.022     2.580
ATOM     16  C5  MK1 B 902      32.842 -10.998  -3.900 -0.38 -0.01    +0.037     2.580
ATOM     17  C6  MK1 B 902      32.304 -10.761  -1.484 +0.29 -0.00    +0.037     2.580
ATOM     18  C7  MK1 B 902      33.021  -8.751  -2.860 -0.51 -0.00    +0.037     2.580
ATOM     19  C31 MK1 B 902      27.427  -7.002  -5.231 -0.15 -0.10    +0.312     2.580
ATOM     20  C32 MK1 B 902      28.631  -6.199  -4.787 -0.27 +0.00    -0.015     2.580
ATOM     21  C33 MK1 B 902      28.486  -5.115  -3.897 -0.19 -0.00    +0.096     2.580
ATOM     22  N5  MK1 B 902      29.535  -4.299  -3.420 -0.09 -0.01    -0.375     2.580
ATOM     23  C34 MK1 B 902      30.784  -4.697  -3.943 -0.25 -0.00    +0.087     2.580
ATOM     24  H5  MK1 B 902      29.405  -3.518  -2.777 +0.02 +0.03    +0.164     2.580
ATOM     25  C35 MK1 B 902      31.026  -5.759  -4.828 -0.38 -0.01    +0.018     2.580
ATOM     26  C36 MK1 B 902      29.927  -6.526  -5.259 -0.34 -0.00    +0.011     2.580
ATOM     27  C12 MK1 B 902      27.181 -11.096   0.213 -0.17 -0.01    +0.047     2.580
ATOM     28  C13 MK1 B 902      28.633 -10.654  -0.062 -0.36 -0.01    +0.084     2.580
ATOM     29  C14 MK1 B 902      28.787  -9.144   0.253 +1.35 +0.01    +0.052     2.580
ATOM     30  C15 MK1 B 902      27.604  -8.314  -0.213 -0.29 +0.00    -0.057     2.580
ATOM     31  C16 MK1 B 902      26.280  -8.579   0.232 -0.42 +0.00    +0.007     2.580
ATOM     32  C17 MK1 B 902      25.191  -7.810  -0.219 -0.48 +0.00    +0.001     2.580
ATOM     33  C18 MK1 B 902      25.439  -6.757  -1.136 -0.37 +0.00    +0.000     2.580
ATOM     34  C19 MK1 B 902      26.750  -6.484  -1.584 -0.31 +0.00    +0.001     2.580
ATOM     35  C20 MK1 B 902      27.840  -7.261  -1.126 -0.13 -0.00    +0.007     2.580
ATOM     36  C21 MK1 B 902      29.617 -11.456   0.804 -0.35 +0.02    +0.222     2.580
ATOM     37  O3  MK1 B 902      30.138 -11.026   1.840 -1.25 -0.15    -0.273     2.580
ATOM     38  N4  MK1 B 902      29.886 -12.670   0.322 -0.11 +0.08    -0.350     2.580
ATOM     39  H4  MK1 B 902      29.229 -13.077  -0.343 +0.11 -0.10    +0.163     2.580
ATOM     40  C22 MK1 B 902      31.036 -13.432   0.679 -0.32 -0.02    +0.147     2.580
ATOM     41  C23 MK1 B 902      31.998 -13.746  -0.452 -0.18 -0.05    +0.149     2.580
ATOM     42  C24 MK1 B 902      32.736 -14.976   0.005 -0.40 -0.01    +0.073     2.580
ATOM     43  C25 MK1 B 902      31.749 -15.736   0.863 -0.30 +0.01    -0.047     2.580
ATOM     44  C26 MK1 B 902      31.681 -17.094   1.283 -0.33 -0.00    +0.008     2.580
ATOM     45  C30 MK1 B 902      30.724 -14.796   1.265 -0.29 +0.01    -0.027     2.580
ATOM     46  C27 MK1 B 902      30.612 -17.500   2.096 -0.36 -0.00    +0.001     2.580
ATOM     47  C28 MK1 B 902      29.604 -16.611   2.503 -0.34 -0.00    +0.001     2.580
ATOM     48  C29 MK1 B 902      29.675 -15.273   2.085 -0.31 -0.00    +0.010     2.580
ATOM     49  O4  MK1 B 902      31.292 -14.000  -1.676 -0.14 +0.43    -0.393     2.580
ATOM     50  H4  MK1 B 902      31.417 -13.292  -2.297 -0.08 -0.25    +0.210     2.580
TER
ENDMDL
MODEL        5
USER    Run = 5
USER    Cluster Rank = 7
USER    Number of conformations in this cluster = 1
USER  
USER    RMSD from reference structure       = 3.654 A
USER  
USER    Estimated Free Energy of Binding    =   -3.80 kcal/mol  [=(1)+(2)+(3)-(4)]
USER    Estimated Inhibition Constant, Ki   =    1.65 mM (millimolar)  [Temperature = 298.15 K]
USER    
USER    (1) Final Intermolecular Energy     =   -7.97 kcal/mol
USER        vdW + Hbond + desolv Energy     =   -8.06 kcal/mol
USER        Electrostatic Energy            =   +0.09 kcal/mol
USER    (2) Final Total Internal Energy     =   -1.46 kcal/mol
USER    (3) Torsional Free Energy           =   +4.18 kcal/mol
USER    (4) Unbound System's Energy  [=(2)] =   -1.46 kcal/mol
USER    
USER    
USER  
USER    DPF = dock.dpf
USER    NEWDPF move	lig2r5p.pdbqt
USER    NEWDPF about	28.886000 -12.075000 -0.082000
USER    NEWDPF tran0	28.447333 -12.369324 3.333035
USER    NEWDPF axisangle0	-0.386771 0.293676 0.874164 112.395976
USER    NEWDPF quaternion0	-0.321393 0.244034 0.726399 0.556325
USER    NEWDPF dihe0	14.27 -73.07 -59.74 180.00 73.49 158.66 -178.48 90.59 117.04 -166.78 166.26 -156.77 -74.39 -29.38 
USER  
USER                              x       y       z    vdW   Elec        q     RMS 
ATOM      1  C11 MK1 B 902      28.912 -11.796   1.534 -0.22 +0.01    +0.147     3.654
ATOM      2  O2  MK1 B 902      28.739 -11.103   0.291 -0.21 +0.04    -0.394     3.654
ATOM      3  H2  MK1 B 902      27.816 -10.882   0.252 +0.13 -0.04    +0.210     3.654
ATOM      4  C10 MK1 B 902      30.436 -11.830   1.773 +0.78 +0.13    +0.305     3.654
ATOM      5  N3  MK1 B 902      31.169 -11.411   0.548 -0.28 +0.03    +0.108     3.654
ATOM      6  C2  MK1 B 902      30.770 -12.243  -0.687 -0.17 -0.11    +0.342     3.654
ATOM      7  C1  MK1 B 902      31.588 -11.683  -1.856 -0.14 -0.12    +0.318     3.654
ATOM      8  N1  MK1 B 902      31.343 -10.229  -2.107 -0.29 -0.02    +0.097     3.654
ATOM      9  C9  MK1 B 902      31.658  -9.488  -0.872 -0.08 +0.02    +0.303     3.654
ATOM     10  C8  MK1 B 902      30.899  -9.960   0.366 +0.14 +0.10    +0.303     3.654
ATOM     11  C3  MK1 B 902      31.090 -13.728  -0.536 -0.24 -0.13    +0.253     3.654
ATOM     12  O1  MK1 B 902      30.258 -14.558  -0.919 -0.25 +0.27    -0.271     3.654
ATOM     13  N2  MK1 B 902      32.282 -14.035   0.021 -0.13 +0.07    -0.351     3.654
ATOM     14  H2  MK1 B 902      32.874 -13.253   0.301 +0.13 -0.00    +0.163     3.654
ATOM     15  C4  MK1 B 902      32.811 -15.383   0.263 -0.47 -0.00    +0.022     3.654
ATOM     16  C5  MK1 B 902      34.122 -15.430  -0.521 +0.03 -0.00    +0.037     3.654
ATOM     17  C6  MK1 B 902      31.854 -16.427  -0.298 -0.36 -0.01    +0.037     3.654
ATOM     18  C7  MK1 B 902      33.126 -15.617   1.745 -0.45 +0.00    +0.037     3.654
ATOM     19  C31 MK1 B 902      32.144  -9.752  -3.257 -0.23 -0.05    +0.312     3.654
ATOM     20  C32 MK1 B 902      31.623  -8.614  -4.109 -0.38 +0.00    -0.015     3.654
ATOM     21  C33 MK1 B 902      32.495  -7.619  -4.595 -0.41 -0.02    +0.096     3.654
ATOM     22  N5  MK1 B 902      32.118  -6.517  -5.393 -0.06 +0.28    -0.375     3.654
ATOM     23  C34 MK1 B 902      30.732  -6.517  -5.663 -0.34 -0.05    +0.087     3.654
ATOM     24  H5  MK1 B 902      32.768  -5.807  -5.733 -0.48 -0.27    +0.164     3.654
ATOM     25  C35 MK1 B 902      29.790  -7.462  -5.225 -0.33 -0.00    +0.018     3.654
ATOM     26  C36 MK1 B 902      30.244  -8.533  -4.433 -0.34 -0.00    +0.011     3.654
ATOM     27  C12 MK1 B 902      28.264 -13.194   1.387 -0.36 -0.01    +0.047     3.654
ATOM     28  C13 MK1 B 902      26.800 -13.272   1.868 -0.30 -0.02    +0.084     3.654
ATOM     29  C14 MK1 B 902      25.850 -13.305   0.644 +0.43 -0.03    +0.052     3.654
ATOM     30  C15 MK1 B 902      26.479 -12.735  -0.615 +0.95 +0.08    -0.057     3.654
ATOM     31  C16 MK1 B 902      25.908 -11.631  -1.305 +0.25 -0.01    +0.007     3.654
ATOM     32  C17 MK1 B 902      26.495 -11.121  -2.479 -0.34 -0.00    +0.001     3.654
ATOM     33  C18 MK1 B 902      27.677 -11.735  -2.966 -0.33 -0.00    +0.000     3.654
ATOM     34  C19 MK1 B 902      28.253 -12.831  -2.289 -0.38 -0.00    +0.001     3.654
ATOM     35  C20 MK1 B 902      27.658 -13.338  -1.110 +0.14 -0.01    +0.007     3.654
ATOM     36  C21 MK1 B 902      26.575 -14.533   2.719 -0.29 -0.03    +0.222     3.654
ATOM     37  O3  MK1 B 902      25.758 -14.609   3.643 -0.29 +0.02    -0.273     3.654
ATOM     38  N4  MK1 B 902      27.369 -15.551   2.384 -0.15 +0.07    -0.350     3.654
ATOM     39  H4  MK1 B 902      27.796 -15.540   1.457 +0.08 -0.06    +0.163     3.654
ATOM     40  C22 MK1 B 902      27.656 -16.652   3.241 -0.37 -0.02    +0.147     3.654
ATOM     41  C23 MK1 B 902      27.432 -16.411   4.723 -0.42 -0.02    +0.149     3.654
ATOM     42  C24 MK1 B 902      28.320 -17.414   5.411 -0.42 -0.02    +0.073     3.654
ATOM     43  C25 MK1 B 902      29.502 -17.601   4.485 -0.30 +0.01    -0.047     3.654
ATOM     44  C26 MK1 B 902      30.818 -18.104   4.689 -0.19 -0.00    +0.008     3.654
ATOM     45  C30 MK1 B 902      29.093 -17.136   3.176 -0.36 +0.01    -0.027     3.654
ATOM     46  C27 MK1 B 902      31.702 -18.148   3.601 +0.01 +0.00    +0.001     3.654
ATOM     47  C28 MK1 B 902      31.334 -17.706   2.320 -0.35 +0.00    +0.001     3.654
ATOM     48  C29 MK1 B 902      30.036 -17.210   2.125 -0.35 -0.00    +0.010     3.654
ATOM     49  O4  MK1 B 902      27.796 -15.072   5.090 -0.23 +0.03    -0.393     3.654
ATOM     50  H4  MK1 B 902      27.026 -14.543   5.261 +0.15 +0.00    +0.210     3.654
TER
ENDMDL


AVSFLD: # AVS field file
AVSFLD: #
AVSFLD: # Created by AutoDock
AVSFLD: #
AVSFLD: ndim=2           # number of dimensions in the field
AVSFLD: nspace=1         # number of physical coordinates
AVSFLD: veclen=7         # vector size
AVSFLD: dim1=50          # atoms
AVSFLD: dim2=7           # conformations
AVSFLD: data=Real       # data type (byte,integer,Real,double)
AVSFLD: field=uniform    # field coordinate layout
AVSFLD: label= x y z vdW Elec q RMS
AVSFLD: variable 1 file = dock.dlg.pdb filetype = ascii offset = 5 stride = 12
AVSFLD: variable 2 file = dock.dlg.pdb filetype = ascii offset = 6 stride = 12
AVSFLD: variable 3 file = dock.dlg.pdb filetype = ascii offset = 7 stride = 12
AVSFLD: variable 4 file = dock.dlg.pdb filetype = ascii offset = 8 stride = 12
AVSFLD: variable 5 file = dock.dlg.pdb filetype = ascii offset = 9 stride = 12
AVSFLD: variable 6 file = dock.dlg.pdb filetype = ascii offset = 10 stride = 12
AVSFLD: variable 7 file = dock.dlg.pdb filetype = ascii offset = 11 stride = 12
AVSFLD: # end of file

>>> Closing the docking parameter file (DPF)...
This docking finished at:			0:15 51" a.m., 11/25/2025


________________________________________________________________________________

.\autodock4.exe: Successful Completion on "LAPTOP-PFTQOH6G"

Real= 40m 15.68s,  CPU= 3m 16.06s,  System= 3.28s
________________________________________________________________________________

