REMARK  13 active torsions:
REMARK  status: ('A' for Active; 'I' for Inactive)
REMARK    1  A    between atoms: C1_1  and  C3_11 
REMARK    2  A    between atoms: C1_1  and  N3_12 
REMARK    3  A    between atoms: S1_6  and  O5_19 
REMARK    4  A    between atoms: S1_6  and  O6_22 
REMARK    5  A    between atoms: S1_6  and  N3_12 
REMARK    6  A    between atoms: C2_7  and  N2_8 
REMARK    7  A    between atoms: N2_8  and  S2_10 
REMARK    8  A    between atoms: N2_8  and  C18_37 
REMARK    9  A    between atoms: S2_10  and  C25_44 
REMARK   10  A    between atoms: N3_12  and  C4_14 
REMARK   11  A    between atoms: N4_15  and  C17_36 
REMARK   12  A    between atoms: N5_18  and  C30_49 
REMARK   13  A    between atoms: C18_37  and  C19_38 
ROOT
HETATM    1  N1  4B1 A 201      57.810  33.898  22.741  1.00 20.75    -0.071 N 
ATOM      2  H11 4B1 A 201      57.390  33.441  21.931  1.00  0.00     0.277 HD
ATOM      3  H12 4B1 A 201      57.779  34.854  22.388  1.00  0.00     0.277 HD
HETATM    4  C2  4B1 A 201      59.217  33.286  24.487  1.00 49.11     0.152 C 
HETATM    5  C4  4B1 A 201      58.001  33.952  25.038  1.00 42.42     0.149 C 
HETATM    6  C5  4B1 A 201      59.130  33.450  23.001  1.00 26.07     0.260 C 
HETATM    7  C6  4B1 A 201      57.044  33.720  23.941  1.00 23.48     0.260 C 
ENDROOT
BRANCH   5   8
HETATM    8  N3  4B1 A 201      58.182  35.335  25.560  1.00 42.05    -0.306 N 
BRANCH   8   9
HETATM    9  C1  4B1 A 201      57.486  36.464  24.963  1.00 39.83     0.112 C 
BRANCH   9  10
HETATM   10  C3  4B1 A 201      56.149  36.547  25.238  1.00 29.06    -0.020 A 
HETATM   11  C7  4B1 A 201      55.663  36.363  26.484  1.00 40.63     0.013 A 
HETATM   12  C9  4B1 A 201      54.326  36.429  26.717  1.00 34.43     0.001 A 
HETATM   13  C11 4B1 A 201      53.447  36.695  25.736  1.00 25.48     0.000 A 
HETATM   14  C10 4B1 A 201      53.962  36.875  24.500  1.00 33.34     0.001 A 
HETATM   15  C8  4B1 A 201      55.294  36.791  24.229  1.00 26.88     0.013 A 
ENDBRANCH   9  10
ENDBRANCH   8   9
BRANCH   8  16
HETATM   16  S1  4B1 A 201      58.888  35.599  26.713  1.00 49.50     0.008 SA
HETATM   17  C13 4B1 A 201      60.979  34.599  26.142  1.00 33.45     0.158 A 
HETATM   18  C12 4B1 A 201      60.291  35.751  26.374  1.00 45.39     0.036 A 
HETATM   19  C15 4B1 A 201      62.296  34.704  25.835  1.00 23.03     0.033 A 
HETATM   20  C14 4B1 A 201      60.911  36.966  26.282  1.00 38.57     0.022 A 
HETATM   21  C16 4B1 A 201      62.235  37.032  25.972  1.00 23.41     0.037 A 
HETATM   22  C17 4B1 A 201      62.943  35.900  25.756  1.00 20.18     0.100 A 
BRANCH  16  23
HETATM   23  O5  4B1 A 201      58.443  36.813  27.376  1.00 67.65    -0.318 OA
ATOM     24  H5  4B1 A 201      58.614  37.505  26.748  1.00  0.00     0.229 HD
ENDBRANCH  16  23
BRANCH  16  25
HETATM   25  O6  4B1 A 201      58.817  34.554  27.762  1.00 55.37    -0.318 OA
ATOM     26  H6  4B1 A 201      57.980  34.128  27.619  1.00  0.00     0.229 HD
ENDBRANCH  16  25
BRANCH  22  27
HETATM   27  N4  4B1 A 201      64.202  35.937  25.427  1.00 24.65    -0.116 N 
HETATM   28  O1  4B1 A 201      65.176  36.245  26.392  1.00 22.76    -0.532 OA
HETATM   29  O2  4B1 A 201      64.584  35.608  24.138  1.00 28.18    -0.532 OA
ENDBRANCH  22  27
ENDBRANCH   8  16
ENDBRANCH   5   8
BRANCH   4  30
HETATM   30  N2  4B1 A 201      59.483  31.923  25.012  1.00 43.49    -0.273 N 
BRANCH  30  31
HETATM   31  S2  4B1 A 201      58.789  31.515  26.042  1.00 53.39     0.265 S 
HETATM   32  O3  4B1 A 201      59.380  30.265  26.479  1.00 54.67    -0.200 OA
HETATM   33  O4  4B1 A 201      58.809  32.422  27.212  1.00 54.05    -0.200 OA
BRANCH  31  34
HETATM   34  C25 4B1 A 201      57.297  31.271  25.683  1.00 42.42     0.080 A 
HETATM   35  C26 4B1 A 201      57.015  30.657  24.504  1.00 42.97     0.028 A 
HETATM   36  C28 4B1 A 201      55.727  30.405  24.153  1.00 31.35     0.037 A 
HETATM   37  C30 4B1 A 201      54.682  30.806  24.940  1.00 30.89     0.102 A 
HETATM   38  C29 4B1 A 201      54.946  31.411  26.131  1.00 22.28     0.037 A 
HETATM   39  C27 4B1 A 201      56.247  31.635  26.501  1.00 36.00     0.028 A 
BRANCH  37  40
HETATM   40  N5  4B1 A 201      53.459  30.575  24.538  1.00 44.51    -0.116 N 
HETATM   41  O7  4B1 A 201      53.104  29.314  24.158  1.00 25.89    -0.532 OA
HETATM   42  O8  4B1 A 201      52.542  31.631  24.380  1.00 35.07    -0.532 OA
ENDBRANCH  37  40
ENDBRANCH  31  34
ENDBRANCH  30  31
BRANCH  30  43
HETATM   43  C18 4B1 A 201      60.575  31.153  24.473  1.00 34.87     0.115 C 
BRANCH  43  44
HETATM   44  C19 4B1 A 201      61.798  31.414  24.970  1.00 27.07    -0.020 A 
HETATM   45  C20 4B1 A 201      62.812  31.801  24.164  1.00 34.66     0.013 A 
HETATM   46  C22 4B1 A 201      64.067  32.021  24.645  1.00 28.38     0.001 A 
HETATM   47  C24 4B1 A 201      64.298  31.845  25.972  1.00 24.71     0.000 A 
HETATM   48  C23 4B1 A 201      63.270  31.447  26.796  1.00 36.43     0.001 A 
HETATM   49  C21 4B1 A 201      62.022  31.229  26.296  1.00 25.62     0.013 A 
ENDBRANCH  43  44
ENDBRANCH  30  43
ENDBRANCH   4  30
TORSDOF 13
