          AutoDock 4.2 Release 4.2.6   
         (C) 1989-2012 The Scripps Research Institute
        AutoDock comes with ABSOLUTELY NO WARRANTY.
        AutoDock is free software, and you are welcome
        to redistribute it under certain conditions;
        for details type 'autodock4 -C'

                     main.cc  $Revision: 1.213 $

                   Compiled on Jul 18 2014 at 15:34:58


This file was created at:			11:17 00" p.m., 11/24/2025
                   on host:		"LAPTOP-PFTQOH6G"
Current Working Directory = "C:\Program Files (x86)\Docking\November 25\2411 Docking\2P3C"

      ________________________________________________________________

                   SETTING UP DEFAULT PARAMETER LIBRARY
      ________________________________________________________________


Random number generator was seeded with values 17356, 1764015420.
Docking parameter file (DPF) used for this docking:		dock.dpf
DPF> autodock_parameter_version 4.2       # used by autodock to validate parameter set

	Autodock parameter version 4.2.
DPF> outlev 1                             # diagnostic output level

Output Level = 1  ADT-COMPATIBLE OUTPUT DURING DOCKING.
DPF> intelec                              # calculate internal electrostatics

Electrostatic energies will be calculated for all non-bonds between moving atoms.
DPF> seed pid time                        # seeds for random generator

Random number generator was seeded with values 17356, 1764015420.
DPF> ligand_types A C HD OA N             # atoms types in ligand

DPF> fld 2p3c.maps.fld                    # grid_data_file

Opening Grid Map Dimensions file:		2p3c.maps.fld
Grid Point Spacing =				0.375 Angstroms

Even Number of User-specified Grid Points =	42 x-points
						36 y-points
						62 z-points

Coordinates of Central Grid Point of Maps =	(-6.403, -12.566, 14.441)
Macromolecule file used to create Grid Maps =	2p3c.pdbqt
Grid Parameter file used to create Grid Maps =	grid.gpf
Minimum coordinates in grid = (-14.278, -19.316, 2.816)
Maximum coordinates in grid = (1.472, -5.816, 26.066)

DPF> map 2p3c.A.map                       # atom-specific affinity map

DPF> map 2p3c.C.map                       # atom-specific affinity map

DPF> map 2p3c.HD.map                      # atom-specific affinity map

DPF> map 2p3c.OA.map                      # atom-specific affinity map

DPF> map 2p3c.N.map                       # atom-specific affinity map

DPF> elecmap 2p3c.e.map                   # electrostatics map

DPF> desolvmap 2p3c.d.map                 # desolvation map

DPF> move lig2p3c.pdbqt                   # small molecule

1,4-interactions will be _ignored_ in the non-bonded internal energy calculation.

Ligand PDBQT file = "lig2p3c.pdbqt"

INPUT LIGAND PDBQT FILE:
________________________

INPUT-LIGAND-PDBQT: REMARK  27 active torsions:
INPUT-LIGAND-PDBQT: REMARK  status: ('A' for Active; 'I' for Inactive)
INPUT-LIGAND-PDBQT: REMARK    1  A    between atoms: CA@A_1  and  C@A_3 
INPUT-LIGAND-PDBQT: REMARK    2  A    between atoms: CA@A_1  and  O9@A_28 
INPUT-LIGAND-PDBQT: REMARK    3  A    between atoms: CA5@A_2  and  C50@A_41 
INPUT-LIGAND-PDBQT: REMARK    4  A    between atoms: CA5@A_2  and  O59@A_62 
INPUT-LIGAND-PDBQT: REMARK    5  A    between atoms: C1@A_8  and  N1@A_9 
INPUT-LIGAND-PDBQT: REMARK    6  A    between atoms: C1@A_8  and  C3@A_17 
INPUT-LIGAND-PDBQT: REMARK    7  A    between atoms: C1@A_8  and  C2@A_13 
INPUT-LIGAND-PDBQT: REMARK       I    between atoms: N1@A_9  and  C11@A_30 
INPUT-LIGAND-PDBQT: REMARK    8  A    between atoms: O1@A_11  and  C2@A_13 
INPUT-LIGAND-PDBQT: REMARK    9  A    between atoms: C2@A_13  and  C52@A_47 
INPUT-LIGAND-PDBQT: REMARK   10  A    between atoms: N2@A_14  and  C10@A_29 
INPUT-LIGAND-PDBQT: REMARK       I    between atoms: N2@A_14  and  C19@A_38 
INPUT-LIGAND-PDBQT: REMARK   11  A    between atoms: C3@A_17  and  C4@A_18 
INPUT-LIGAND-PDBQT: REMARK   12  A    between atoms: N4@A_19  and  C18@A_37 
INPUT-LIGAND-PDBQT: REMARK       I    between atoms: N4@A_19  and  C31@A_40 
INPUT-LIGAND-PDBQT: REMARK   13  A    between atoms: O9@A_28  and  C31@A_40 
INPUT-LIGAND-PDBQT: REMARK   14  A    between atoms: C10@A_29  and  C11@A_30 
INPUT-LIGAND-PDBQT: REMARK   15  A    between atoms: C10@A_29  and  C12@A_31 
INPUT-LIGAND-PDBQT: REMARK   16  A    between atoms: C18@A_37  and  C19@A_38 
INPUT-LIGAND-PDBQT: REMARK   17  A    between atoms: C51@A_42  and  C52@A_47 
INPUT-LIGAND-PDBQT: REMARK   18  A    between atoms: C51@A_42  and  C53@A_51 
INPUT-LIGAND-PDBQT: REMARK   19  A    between atoms: C51@A_42  and  N51@A_43 
INPUT-LIGAND-PDBQT: REMARK       I    between atoms: N51@A_43  and  C61@A_64 
INPUT-LIGAND-PDBQT: REMARK   20  A    between atoms: O51@A_45  and  C52@A_47 
INPUT-LIGAND-PDBQT: REMARK   21  A    between atoms: N52@A_48  and  C60@A_63 
INPUT-LIGAND-PDBQT: REMARK       I    between atoms: N52@A_48  and  C69@A_72 
INPUT-LIGAND-PDBQT: REMARK   22  A    between atoms: C53@A_51  and  C54@A_52 
INPUT-LIGAND-PDBQT: REMARK   23  A    between atoms: N54@A_53  and  C68@A_71 
INPUT-LIGAND-PDBQT: REMARK       I    between atoms: N54@A_53  and  C81@A_74 
INPUT-LIGAND-PDBQT: REMARK   24  A    between atoms: O59@A_62  and  C81@A_74 
INPUT-LIGAND-PDBQT: REMARK   25  A    between atoms: C60@A_63  and  C61@A_64 
INPUT-LIGAND-PDBQT: REMARK   26  A    between atoms: C60@A_63  and  C62@A_65 
INPUT-LIGAND-PDBQT: REMARK   27  A    between atoms: C68@A_71  and  C69@A_72 
INPUT-LIGAND-PDBQT: ROOT
INPUT-LIGAND-PDBQT: HETATM    1  C2 A3TL A 201      -9.885 -16.546  13.755  0.50 23.53     0.171 C 
INPUT-LIGAND-PDBQT: ENDROOT
INPUT-LIGAND-PDBQT: BRANCH   1   2
INPUT-LIGAND-PDBQT: HETATM    2  C1 A3TL A 201     -10.459 -15.308  13.089  0.50 24.03     0.120 C 
INPUT-LIGAND-PDBQT: BRANCH   2   3
INPUT-LIGAND-PDBQT: HETATM    3  N1 A3TL A 201     -10.462 -15.467  11.652  0.50 22.15    -0.352 N 
INPUT-LIGAND-PDBQT: HETATM    4  C11A3TL A 201      -9.714 -14.709  10.863  0.50 20.71     0.241 C 
INPUT-LIGAND-PDBQT: HETATM    5  O2 A3TL A 201      -8.937 -13.874  11.276  0.50 20.06    -0.271 OA
INPUT-LIGAND-PDBQT: ATOM      6  H1 A3TL A 201     -11.056 -16.183  11.234  1.00  0.00     0.163 HD
INPUT-LIGAND-PDBQT: BRANCH   4   7
INPUT-LIGAND-PDBQT: HETATM    7  C10A3TL A 201      -9.920 -14.903   9.397  0.50 21.90     0.180 C 
INPUT-LIGAND-PDBQT: BRANCH   7   8
INPUT-LIGAND-PDBQT: HETATM    8  N2 A3TL A 201     -10.650 -13.732   8.927  0.50 22.74    -0.346 N 
INPUT-LIGAND-PDBQT: HETATM    9  C19A3TL A 201     -11.612 -13.783   8.021  0.50 20.65     0.240 C 
INPUT-LIGAND-PDBQT: HETATM   10  O4 A3TL A 201     -11.956 -14.820   7.489  0.50 20.58    -0.271 OA
INPUT-LIGAND-PDBQT: ATOM     11  H2 A3TL A 201     -10.405 -12.823   9.319  1.00  0.00     0.163 HD
INPUT-LIGAND-PDBQT: BRANCH   9  12
INPUT-LIGAND-PDBQT: HETATM   12  C18A3TL A 201     -12.250 -12.472   7.659  0.50 21.31     0.174 C 
INPUT-LIGAND-PDBQT: HETATM   13  C20A3TL A 201     -13.547 -12.297   8.442  0.50 21.62     0.042 C 
INPUT-LIGAND-PDBQT: BRANCH  12  14
INPUT-LIGAND-PDBQT: HETATM   14  N4 A3TL A 201     -12.499 -12.382   6.231  0.50 20.15    -0.324 N 
INPUT-LIGAND-PDBQT: HETATM   15  C31A3TL A 201     -11.697 -11.707   5.401  0.50 21.29     0.361 C 
INPUT-LIGAND-PDBQT: HETATM   16  O8 A3TL A 201     -10.662 -11.161   5.756  0.50 21.95    -0.238 OA
INPUT-LIGAND-PDBQT: ATOM     17  H4 A3TL A 201     -13.318 -12.852   5.846  1.00  0.00     0.165 HD
INPUT-LIGAND-PDBQT: BRANCH  15  18
INPUT-LIGAND-PDBQT: HETATM   18  O9 A3TL A 201     -12.100 -11.604   4.005  0.50 21.63    -0.299 OA
INPUT-LIGAND-PDBQT: BRANCH  18  19
INPUT-LIGAND-PDBQT: HETATM   19  CA A3TL A 201     -11.518 -10.630   3.142  0.50 21.81     0.219 C 
INPUT-LIGAND-PDBQT: BRANCH  19  20
INPUT-LIGAND-PDBQT: HETATM   20  C  A3TL A 201     -12.050  -9.234   3.387  0.50 21.79    -0.034 A 
INPUT-LIGAND-PDBQT: HETATM   21  C13A3TL A 201     -11.217  -8.133   3.134  0.50 21.75     0.009 A 
INPUT-LIGAND-PDBQT: HETATM   22  C14A3TL A 201     -11.684  -6.838   3.331  0.50 21.99     0.001 A 
INPUT-LIGAND-PDBQT: HETATM   23  C15A3TL A 201     -12.988  -6.634   3.791  0.50 22.18     0.000 A 
INPUT-LIGAND-PDBQT: HETATM   24  C16A3TL A 201     -13.820  -7.730   4.043  0.50 21.95     0.001 A 
INPUT-LIGAND-PDBQT: HETATM   25  C17A3TL A 201     -13.348  -9.034   3.835  0.50 21.80     0.009 A 
INPUT-LIGAND-PDBQT: ENDBRANCH  19  20
INPUT-LIGAND-PDBQT: ENDBRANCH  18  19
INPUT-LIGAND-PDBQT: ENDBRANCH  15  18
INPUT-LIGAND-PDBQT: ENDBRANCH  12  14
INPUT-LIGAND-PDBQT: ENDBRANCH   9  12
INPUT-LIGAND-PDBQT: ENDBRANCH   7   8
INPUT-LIGAND-PDBQT: BRANCH   7  26
INPUT-LIGAND-PDBQT: HETATM   26  C12A3TL A 201      -8.604 -15.086   8.642  0.50 22.73     0.009 C 
INPUT-LIGAND-PDBQT: HETATM   27  CG1A3TL A 201      -7.635 -16.084   9.281  0.50 21.23     0.012 C 
INPUT-LIGAND-PDBQT: HETATM   28  CG2A3TL A 201      -8.839 -15.460   7.182  0.50 23.06     0.012 C 
INPUT-LIGAND-PDBQT: ENDBRANCH   7  26
INPUT-LIGAND-PDBQT: ENDBRANCH   4   7
INPUT-LIGAND-PDBQT: ENDBRANCH   2   3
INPUT-LIGAND-PDBQT: BRANCH   2  29
INPUT-LIGAND-PDBQT: HETATM   29  C3 A3TL A 201     -11.887 -15.052  13.563  0.50 23.17     0.066 C 
INPUT-LIGAND-PDBQT: BRANCH  29  30
INPUT-LIGAND-PDBQT: HETATM   30  C4 A3TL A 201     -12.207 -13.598  13.343  0.50 23.99    -0.056 A 
INPUT-LIGAND-PDBQT: HETATM   31  C5 A3TL A 201     -13.021 -13.224  12.271  0.50 23.73     0.007 A 
INPUT-LIGAND-PDBQT: HETATM   32  C6 A3TL A 201     -13.302 -11.873  12.076  0.50 25.44     0.001 A 
INPUT-LIGAND-PDBQT: HETATM   33  C7 A3TL A 201     -12.772 -10.914  12.941  0.50 23.69     0.000 A 
INPUT-LIGAND-PDBQT: HETATM   34  C8 A3TL A 201     -11.972 -11.297  14.012  0.50 24.33     0.001 A 
INPUT-LIGAND-PDBQT: HETATM   35  C9 A3TL A 201     -11.691 -12.644  14.218  0.50 23.60     0.007 A 
INPUT-LIGAND-PDBQT: ENDBRANCH  29  30
INPUT-LIGAND-PDBQT: ENDBRANCH   2  29
INPUT-LIGAND-PDBQT: ENDBRANCH   1   2
INPUT-LIGAND-PDBQT: BRANCH   1  36
INPUT-LIGAND-PDBQT: HETATM   36  O1 A3TL A 201     -10.717 -17.622  13.381  0.50 25.08    -0.391 OA
INPUT-LIGAND-PDBQT: ATOM     37  H1 A3TL A 201     -10.358 -18.397  13.798  1.00  0.00     0.210 HD
INPUT-LIGAND-PDBQT: ENDBRANCH   1  36
INPUT-LIGAND-PDBQT: BRANCH   1  38
INPUT-LIGAND-PDBQT: HETATM   38  C52A3TL A 201      -8.486 -16.926  13.304  0.50 25.46     0.171 C 
INPUT-LIGAND-PDBQT: BRANCH  38  39
INPUT-LIGAND-PDBQT: HETATM   39  C51A3TL A 201      -7.358 -16.073  13.853  0.50 25.56     0.120 C 
INPUT-LIGAND-PDBQT: BRANCH  39  40
INPUT-LIGAND-PDBQT: HETATM   40  C53A3TL A 201      -6.107 -16.749  13.300  0.50 27.60     0.066 C 
INPUT-LIGAND-PDBQT: BRANCH  40  41
INPUT-LIGAND-PDBQT: HETATM   41  C54A3TL A 201      -4.815 -16.180  13.823  0.50 27.75    -0.056 A 
INPUT-LIGAND-PDBQT: HETATM   42  C55A3TL A 201      -4.419 -16.408  15.132  0.50 28.96     0.007 A 
INPUT-LIGAND-PDBQT: HETATM   43  C56A3TL A 201      -3.224 -15.882  15.607  0.50 30.14     0.001 A 
INPUT-LIGAND-PDBQT: HETATM   44  C57A3TL A 201      -2.441 -15.130  14.749  0.50 29.53     0.000 A 
INPUT-LIGAND-PDBQT: HETATM   45  C58A3TL A 201      -2.836 -14.917  13.429  0.50 30.00     0.001 A 
INPUT-LIGAND-PDBQT: HETATM   46  C59A3TL A 201      -4.026 -15.446  12.965  0.50 27.96     0.007 A 
INPUT-LIGAND-PDBQT: ENDBRANCH  40  41
INPUT-LIGAND-PDBQT: ENDBRANCH  39  40
INPUT-LIGAND-PDBQT: BRANCH  39  47
INPUT-LIGAND-PDBQT: HETATM   47  N51A3TL A 201      -7.434 -16.142  15.307  0.50 25.08    -0.352 N 
INPUT-LIGAND-PDBQT: HETATM   48  C61A3TL A 201      -7.554 -15.113  16.145  0.50 23.99     0.241 C 
INPUT-LIGAND-PDBQT: HETATM   49  O52A3TL A 201      -7.489 -13.936  15.814  0.50 24.43    -0.271 OA
INPUT-LIGAND-PDBQT: ATOM     50  H51A3TL A 201      -7.391 -17.071  15.725  1.00  0.00     0.163 HD
INPUT-LIGAND-PDBQT: BRANCH  48  51
INPUT-LIGAND-PDBQT: HETATM   51  C60A3TL A 201      -7.744 -15.515  17.579  0.50 25.01     0.180 C 
INPUT-LIGAND-PDBQT: BRANCH  51  52
INPUT-LIGAND-PDBQT: HETATM   52  N52A3TL A 201      -6.428 -15.708  18.186  0.50 25.81    -0.346 N 
INPUT-LIGAND-PDBQT: HETATM   53  C69A3TL A 201      -6.069 -16.758  18.930  0.50 24.47     0.240 C 
INPUT-LIGAND-PDBQT: HETATM   54  O54A3TL A 201      -6.861 -17.563  19.390  0.50 23.91    -0.271 OA
INPUT-LIGAND-PDBQT: ATOM     55  H52A3TL A 201      -5.728 -14.983  18.029  1.00  0.00     0.163 HD
INPUT-LIGAND-PDBQT: BRANCH  53  56
INPUT-LIGAND-PDBQT: HETATM   56  C68A3TL A 201      -4.603 -16.867  19.257  0.50 25.59     0.174 C 
INPUT-LIGAND-PDBQT: HETATM   57  C70A3TL A 201      -3.920 -18.095  18.659  0.50 23.19     0.042 C 
INPUT-LIGAND-PDBQT: BRANCH  56  58
INPUT-LIGAND-PDBQT: HETATM   58  N54A3TL A 201      -4.425 -16.884  20.696  0.50 25.74    -0.324 N 
INPUT-LIGAND-PDBQT: HETATM   59  C81A3TL A 201      -4.089 -15.789  21.368  0.50 26.08     0.361 C 
INPUT-LIGAND-PDBQT: HETATM   60  O58A3TL A 201      -3.848 -14.717  20.833  0.50 26.09    -0.238 OA
INPUT-LIGAND-PDBQT: ATOM     61  H54A3TL A 201      -4.561 -17.758  21.204  1.00  0.00     0.165 HD
INPUT-LIGAND-PDBQT: BRANCH  59  62
INPUT-LIGAND-PDBQT: HETATM   62  O59A3TL A 201      -3.985 -15.917  22.811  0.50 27.11    -0.299 OA
INPUT-LIGAND-PDBQT: BRANCH  62  63
INPUT-LIGAND-PDBQT: HETATM   63  CA5A3TL A 201      -3.495 -14.833  23.600  0.50 27.41     0.219 C 
INPUT-LIGAND-PDBQT: BRANCH  63  64
INPUT-LIGAND-PDBQT: HETATM   64  C50A3TL A 201      -1.983 -14.763  23.571  0.50 27.98    -0.034 A 
INPUT-LIGAND-PDBQT: HETATM   65  C63A3TL A 201      -1.357 -13.535  23.790  0.50 26.63     0.009 A 
INPUT-LIGAND-PDBQT: HETATM   66  C64A3TL A 201       0.036 -13.446  23.784  0.50 27.63     0.001 A 
INPUT-LIGAND-PDBQT: HETATM   67  C65A3TL A 201       0.808 -14.583  23.560  0.50 27.20     0.000 A 
INPUT-LIGAND-PDBQT: HETATM   68  C66A3TL A 201       0.179 -15.812  23.349  0.50 28.19     0.001 A 
INPUT-LIGAND-PDBQT: HETATM   69  C67A3TL A 201      -1.216 -15.910  23.359  0.50 27.18     0.009 A 
INPUT-LIGAND-PDBQT: ENDBRANCH  63  64
INPUT-LIGAND-PDBQT: ENDBRANCH  62  63
INPUT-LIGAND-PDBQT: ENDBRANCH  59  62
INPUT-LIGAND-PDBQT: ENDBRANCH  56  58
INPUT-LIGAND-PDBQT: ENDBRANCH  53  56
INPUT-LIGAND-PDBQT: ENDBRANCH  51  52
INPUT-LIGAND-PDBQT: BRANCH  51  70
INPUT-LIGAND-PDBQT: HETATM   70  C62A3TL A 201      -8.646 -14.530  18.346  0.50 26.20     0.009 C 
INPUT-LIGAND-PDBQT: HETATM   71  CG5A3TL A 201     -10.084 -14.637  17.859  0.50 24.92     0.012 C 
INPUT-LIGAND-PDBQT: HETATM   72  CG6A3TL A 201      -8.616 -14.741  19.867  0.50 25.77     0.012 C 
INPUT-LIGAND-PDBQT: ENDBRANCH  51  70
INPUT-LIGAND-PDBQT: ENDBRANCH  48  51
INPUT-LIGAND-PDBQT: ENDBRANCH  39  47
INPUT-LIGAND-PDBQT: ENDBRANCH  38  39
INPUT-LIGAND-PDBQT: BRANCH  38  73
INPUT-LIGAND-PDBQT: HETATM   73  O51A3TL A 201      -8.260 -18.262  13.746  0.50 24.73    -0.391 OA
INPUT-LIGAND-PDBQT: ATOM     74  H51A3TL A 201      -7.385 -18.500  13.464  1.00  0.00     0.210 HD
INPUT-LIGAND-PDBQT: ENDBRANCH  38  73
INPUT-LIGAND-PDBQT: ENDBRANCH   1  38
INPUT-LIGAND-PDBQT: TORSDOF 27
________________________________________________________________________________

Total charge on ligand                               =	+0.004 e
REMARK  27 active torsions:
REMARK  status: ('A' for Active; 'I' for Inactive)
REMARK    1  A    between atoms: CA@A_1  and  C@A_3 
REMARK    2  A    between atoms: CA@A_1  and  O9@A_28 
REMARK    3  A    between atoms: CA5@A_2  and  C50@A_41 
REMARK    4  A    between atoms: CA5@A_2  and  O59@A_62 
REMARK    5  A    between atoms: C1@A_8  and  N1@A_9 
REMARK    6  A    between atoms: C1@A_8  and  C3@A_17 
REMARK    7  A    between atoms: C1@A_8  and  C2@A_13 
REMARK       I    between atoms: N1@A_9  and  C11@A_30 
REMARK    8  A    between atoms: O1@A_11  and  C2@A_13 
REMARK    9  A    between atoms: C2@A_13  and  C52@A_47 
REMARK   10  A    between atoms: N2@A_14  and  C10@A_29 
REMARK       I    between atoms: N2@A_14  and  C19@A_38 
REMARK   11  A    between atoms: C3@A_17  and  C4@A_18 
REMARK   12  A    between atoms: N4@A_19  and  C18@A_37 
REMARK       I    between atoms: N4@A_19  and  C31@A_40 
REMARK   13  A    between atoms: O9@A_28  and  C31@A_40 
REMARK   14  A    between atoms: C10@A_29  and  C11@A_30 
REMARK   15  A    between atoms: C10@A_29  and  C12@A_31 
REMARK   16  A    between atoms: C18@A_37  and  C19@A_38 
REMARK   17  A    between atoms: C51@A_42  and  C52@A_47 
REMARK   18  A    between atoms: C51@A_42  and  C53@A_51 
REMARK   19  A    between atoms: C51@A_42  and  N51@A_43 
REMARK       I    between atoms: N51@A_43  and  C61@A_64 
REMARK   20  A    between atoms: O51@A_45  and  C52@A_47 
REMARK   21  A    between atoms: N52@A_48  and  C60@A_63 
REMARK       I    between atoms: N52@A_48  and  C69@A_72 
REMARK   22  A    between atoms: C53@A_51  and  C54@A_52 
REMARK   23  A    between atoms: N54@A_53  and  C68@A_71 
REMARK       I    between atoms: N54@A_53  and  C81@A_74 
REMARK   24  A    between atoms: O59@A_62  and  C81@A_74 
REMARK   25  A    between atoms: C60@A_63  and  C61@A_64 
REMARK   26  A    between atoms: C60@A_63  and  C62@A_65 
REMARK   27  A    between atoms: C68@A_71  and  C69@A_72 


Number of Rotatable Bonds in Small Molecule =	27 torsions
Number of atoms in ligand:  74

Number of non-hydrogen atoms in ligand:  66

Number of vibrational degrees of freedom of ligand:  216


Number of torsional degrees of freedom = 27
Estimated loss of torsional free energy upon binding = +8.0541 kcal/mol


DPF> about -8.198 -14.354 13.542            # small molecule center

Small molecule center of rotation =	(-8.198, -14.354, +13.542)

DPF> tran0 random                         # initial coordinates/A or random

Initial translation =			(-5.777, -15.202, 14.892) Angstroms
DPF> quaternion0 random                   # initial orientation

Each run will begin with a new, random initial orientation.
Initial quaternion,  (x,y,z,w) =	( -0.343, -0.306, -0.273, -0.845 ),
DPF> dihe0 random                         # initial dihedrals (relative) or random

DPF> torsdof 27                            # torsional degrees of freedom

Number of torsional degrees of freedom = 27
Free energy coefficient for torsional degrees of freedom = 0.2983, the factory default value.

Estimated loss of torsional free energy upon binding = +8.0541 kcal/mol

DPF> rmstol 2.0                           # cluster_tolerance/A

Maximum RMS tolerance for conformational cluster analysis = 2.00 Angstroms
DPF> extnrg 1000.0                        # external grid energy

External grid energy (beyond grid map walls) = 1000.00

DPF> e0max 0.0 10000                      # max initial energy; max number of retries

Using user-specified maximum number of retries for simanneal initialization, 10000 retries.
If the simanneal initial energy is greater than e0max, 0.000,
then a new, random initial state will be created.

DPF> ga_pop_size 150                      # number of individuals in population

A population of 150 individuals will be used
DPF> ga_num_evals 2500000                 # maximum number of energy evaluations

There will be at most 2500000 function evaluations used.
DPF> ga_num_generations 27000             # maximum number of generations

The GA will run for at most 27000 generations.
DPF> ga_elitism 1                         # number of top individuals to survive to next generation

The 1 best will be preserved each GA generation.
DPF> ga_mutation_rate 0.02                # rate of gene mutation

The mutation rate is 0.020000.
DPF> ga_crossover_rate 0.8                # rate of crossover

The crossover rate is 0.800000.
DPF> ga_window_size 10                    # 

The GA's selection window is 10 generations.
DPF> ga_cauchy_alpha 0.0                  # Alpha parameter of Cauchy distribution

The alpha parameter (for the Cauchy distribution) is being set to 0.000000.
DPF> ga_cauchy_beta 1.0                   # Beta parameter Cauchy distribution

The beta parameter (for the Cauchy distribution) is being set to 1.000000.
DPF> set_ga                               # set the above parameters for GA or LGA

DPF> sw_max_its 300                       # iterations of Solis & Wets local search

Solis & Wets algorithms will perform at most 300 iterations.
DPF> sw_max_succ 4                        # consecutive successes before changing rho

Solis & Wets algorithms expand rho every 4 in a row successes.
DPF> sw_max_fail 4                        # consecutive failures before changing rho

Solis & Wets algorithms contract rho every 4 in a row failures.
DPF> sw_rho 1.0                           # size of local search space to sample

rho is set to 1.000000.
DPF> sw_lb_rho 0.01                       # lower bound on rho

rho will never get smaller than 0.010000.
DPF> ls_search_freq 0.06                  # probability of performing local search on individual

Local search will be performed with frequency 0.060000.
DPF> set_psw1                             # set the above pseudo-Solis & Wets parameters

Creating a new Local Search object using the pseudo-Solis-Wets algorithm (pSW1) with the current settings.

DPF> unbound_model bound                  # state of unbound ligand

DPF> ga_run 10                            # do this many hybrid GA-LS runs

centering ligand on specified point: -8.198 -14.354 13.542
Furthest true ligand atom from "about" center is 13.473 Angstroms (maxrad).
Number of requested GA dockings = 10 runs
Unbound model to be used is 'same as bound' [AutoDock 4.2 default].

	BEGINNING GENETIC ALGORITHM DOCKING 1 of 10
Run: 1 Seed: 732344630 295361257 [ Run 1 of 10 GA/GALS ]
Beginning LAMARCKIAN GENETIC ALGORITHM (LGA), with a maximum of 2500000 energy evaluations.

Final-Value: -22.380


	FINAL GENETIC ALGORITHM DOCKED STATE
	_______________________________________________


Detailed state:  trans -7.715 -14.462 12.108 quatxyzw -0.214002 -0.012306 -0.278018 -0.936353 center -8.198 -14.354 13.542 ntor 27 -122.5342 93.7687 -101.2248 167.6664 -46.1238 0.1127 -4.6945 -91.9964 86.4975 -44.8893 75.9318 121.0777 129.1166 -17.9059 -179.5340 162.0430 154.7839 -109.4385 41.7462 56.0719 -153.9257 -115.6807 -172.3818 155.1109 123.6259 -165.2603 86.0367
State:	 -7.715 -14.462  12.108  -0.610 -0.035 -0.792 -41.104   -122.53   93.77 -101.22  167.67  -46.12    0.11   -4.69  -92.00   86.50  -44.89   75.93  121.08  129.12  -17.91 -179.53  162.04  154.78 -109.44   41.75   56.07 -153.93 -115.68 -172.38  155.11  123.63 -165.26   86.04

DOCKED: MODEL        1
DOCKED: USER    Run = 1
DOCKED: USER    DPF = dock.dpf
DOCKED: USER  
DOCKED: USER    Estimated Free Energy of Binding    =   -7.14 kcal/mol  [=(1)+(2)+(3)-(4)]
DOCKED: USER    Estimated Inhibition Constant, Ki   =    5.80 uM (micromolar)  [Temperature = 298.15 K]
DOCKED: USER    
DOCKED: USER    (1) Final Intermolecular Energy     =  -15.20 kcal/mol
DOCKED: USER        vdW + Hbond + desolv Energy     =  -15.06 kcal/mol
DOCKED: USER        Electrostatic Energy            =   -0.13 kcal/mol
DOCKED: USER    (2) Final Total Internal Energy     =   -7.18 kcal/mol
DOCKED: USER    (3) Torsional Free Energy           =   +8.05 kcal/mol
DOCKED: USER    (4) Unbound System's Energy  [=(2)] =   -7.18 kcal/mol
DOCKED: USER    
DOCKED: USER    
DOCKED: USER    NEWDPF move lig2p3c.pdbqt
DOCKED: USER    NEWDPF about -8.198000 -14.354000 13.542000
DOCKED: USER    NEWDPF tran0 -7.714940 -14.461518 12.107832
DOCKED: USER    NEWDPF quaternion0 -0.214002 -0.012306 -0.278018 -0.936353
DOCKED: USER    NEWDPF axisangle0 -0.609590 -0.035054 -0.791941 -41.104175
DOCKED: USER    NEWDPF quat0 -0.609590 -0.035054 -0.791941 -41.104175
DOCKED: USER    NEWDPF dihe0 -122.53 93.77 -101.22 167.67 -46.12 0.11 -4.69 -92.00 86.50 -44.89 75.93 121.08 129.12 -17.91 -179.53 162.04 154.78 -109.44 41.75 56.07 -153.93 -115.68 -172.38 155.11 123.63 -165.26 86.04 
DOCKED: USER  keepresnum = 1 
DOCKED: USER  
DOCKED: REMARK  27 active torsions:
DOCKED: REMARK  status: ('A' for Active; 'I' for Inactive)
DOCKED: REMARK    1  A    between atoms: CA@A_1  and  C@A_3 
DOCKED: REMARK    2  A    between atoms: CA@A_1  and  O9@A_28 
DOCKED: REMARK    3  A    between atoms: CA5@A_2  and  C50@A_41 
DOCKED: REMARK    4  A    between atoms: CA5@A_2  and  O59@A_62 
DOCKED: REMARK    5  A    between atoms: C1@A_8  and  N1@A_9 
DOCKED: REMARK    6  A    between atoms: C1@A_8  and  C3@A_17 
DOCKED: REMARK    7  A    between atoms: C1@A_8  and  C2@A_13 
DOCKED: REMARK       I    between atoms: N1@A_9  and  C11@A_30 
DOCKED: REMARK    8  A    between atoms: O1@A_11  and  C2@A_13 
DOCKED: REMARK    9  A    between atoms: C2@A_13  and  C52@A_47 
DOCKED: REMARK   10  A    between atoms: N2@A_14  and  C10@A_29 
DOCKED: REMARK       I    between atoms: N2@A_14  and  C19@A_38 
DOCKED: REMARK   11  A    between atoms: C3@A_17  and  C4@A_18 
DOCKED: REMARK   12  A    between atoms: N4@A_19  and  C18@A_37 
DOCKED: REMARK       I    between atoms: N4@A_19  and  C31@A_40 
DOCKED: REMARK   13  A    between atoms: O9@A_28  and  C31@A_40 
DOCKED: REMARK   14  A    between atoms: C10@A_29  and  C11@A_30 
DOCKED: REMARK   15  A    between atoms: C10@A_29  and  C12@A_31 
DOCKED: REMARK   16  A    between atoms: C18@A_37  and  C19@A_38 
DOCKED: REMARK   17  A    between atoms: C51@A_42  and  C52@A_47 
DOCKED: REMARK   18  A    between atoms: C51@A_42  and  C53@A_51 
DOCKED: REMARK   19  A    between atoms: C51@A_42  and  N51@A_43 
DOCKED: REMARK       I    between atoms: N51@A_43  and  C61@A_64 
DOCKED: REMARK   20  A    between atoms: O51@A_45  and  C52@A_47 
DOCKED: REMARK   21  A    between atoms: N52@A_48  and  C60@A_63 
DOCKED: REMARK       I    between atoms: N52@A_48  and  C69@A_72 
DOCKED: REMARK   22  A    between atoms: C53@A_51  and  C54@A_52 
DOCKED: REMARK   23  A    between atoms: N54@A_53  and  C68@A_71 
DOCKED: REMARK       I    between atoms: N54@A_53  and  C81@A_74 
DOCKED: REMARK   24  A    between atoms: O59@A_62  and  C81@A_74 
DOCKED: REMARK   25  A    between atoms: C60@A_63  and  C61@A_64 
DOCKED: REMARK   26  A    between atoms: C60@A_63  and  C62@A_65 
DOCKED: REMARK   27  A    between atoms: C68@A_71  and  C69@A_72 
DOCKED: USER                              x       y       z     vdW  Elec       q    Type
DOCKED: USER                           _______ _______ _______ _____ _____    ______ ____
DOCKED: ROOT
DOCKED: ATOM      1  C2 A3TL A 201     -10.273 -15.158  12.925 -0.25 -0.09    +0.171 C 
DOCKED: ENDROOT
DOCKED: BRANCH   1   2
DOCKED: ATOM      2  C1 A3TL A 201     -10.171 -14.200  11.751 -0.25 -0.02    +0.120 C 
DOCKED: BRANCH   2   3
DOCKED: ATOM      3  N1 A3TL A 201     -11.100 -13.105  11.915 -0.08 -0.01    -0.352 N 
DOCKED: ATOM      4  C11A3TL A 201     -10.897 -12.141  12.802 -0.18 +0.05    +0.241 C 
DOCKED: ATOM      5  O2 A3TL A 201      -9.905 -12.069  13.497 -0.08 -0.10    -0.271 OA
DOCKED: ATOM      6  H1 A3TL A 201     -11.936 -13.072  11.331 +0.09 +0.01    +0.163 HD
DOCKED: BRANCH   4   7
DOCKED: ATOM      7  C10A3TL A 201     -12.004 -11.151  12.945 -0.36 +0.04    +0.180 C 
DOCKED: BRANCH   7   8
DOCKED: ATOM      8  N2 A3TL A 201     -12.381 -10.758  11.592 -0.15 -0.09    -0.346 N 
DOCKED: ATOM      9  C19A3TL A 201     -11.969  -9.643  11.012 -0.25 +0.06    +0.240 C 
DOCKED: ATOM     10  O4 A3TL A 201     -11.251  -8.839  11.573 -0.30 -0.05    -0.271 OA
DOCKED: ATOM     11  H2 A3TL A 201     -12.995 -11.378  11.065 +0.09 +0.05    +0.163 HD
DOCKED: BRANCH   9  12
DOCKED: ATOM     12  C18A3TL A 201     -12.463  -9.405   9.613 -0.23 +0.06    +0.174 C 
DOCKED: ATOM     13  C20A3TL A 201     -13.988  -9.414   9.596 -0.19 +0.02    +0.042 C 
DOCKED: BRANCH  12  14
DOCKED: ATOM     14  N4 A3TL A 201     -11.935 -10.395   8.691 -0.02 -0.06    -0.324 N 
DOCKED: ATOM     15  C31A3TL A 201     -12.456 -11.621   8.576 -0.11 +0.05    +0.361 C 
DOCKED: ATOM     16  O8 A3TL A 201     -13.448 -11.995   9.185 -0.16 -0.08    -0.238 OA
DOCKED: ATOM     17  H4 A3TL A 201     -11.136 -10.146   8.109 -0.27 +0.03    +0.165 HD
DOCKED: BRANCH  15  18
DOCKED: ATOM     18  O9 A3TL A 201     -11.784 -12.562   7.689 -0.19 +0.03    -0.299 OA
DOCKED: BRANCH  18  19
DOCKED: ATOM     19  CA A3TL A 201     -11.770 -12.360   6.278 -0.22 -0.05    +0.219 C 
DOCKED: BRANCH  19  20
DOCKED: ATOM     20  C  A3TL A 201     -12.277 -10.992   5.874 -0.23 -0.00    -0.034 A 
DOCKED: ATOM     21  C13A3TL A 201     -11.353 -10.013   5.478 -0.29 +0.00    +0.009 A 
DOCKED: ATOM     22  C14A3TL A 201     -11.790  -8.753   5.083 -0.28 +0.00    +0.001 A 
DOCKED: ATOM     23  C15A3TL A 201     -13.157  -8.460   5.088 -0.10 +0.00    +0.000 A 
DOCKED: ATOM     24  C16A3TL A 201     -14.079  -9.436   5.481 -0.09 +0.00    +0.001 A 
DOCKED: ATOM     25  C17A3TL A 201     -13.635 -10.707   5.871 -0.14 +0.00    +0.009 A 
DOCKED: ENDBRANCH  19  20
DOCKED: ENDBRANCH  18  19
DOCKED: ENDBRANCH  15  18
DOCKED: ENDBRANCH  12  14
DOCKED: ENDBRANCH   9  12
DOCKED: ENDBRANCH   7   8
DOCKED: BRANCH   7  26
DOCKED: ATOM     26  C12A3TL A 201     -13.195 -11.715  13.719 -0.48 +0.00    +0.009 C 
DOCKED: ATOM     27  CG1A3TL A 201     -13.753 -13.028  13.163 -0.37 +0.00    +0.012 C 
DOCKED: ATOM     28  CG2A3TL A 201     -12.878 -11.878  15.202 -0.51 +0.00    +0.012 C 
DOCKED: ENDBRANCH   7  26
DOCKED: ENDBRANCH   4   7
DOCKED: ENDBRANCH   2   3
DOCKED: BRANCH   2  29
DOCKED: ATOM     29  C3 A3TL A 201      -8.757 -13.638  11.633 -0.35 +0.01    +0.066 C 
DOCKED: BRANCH  29  30
DOCKED: ATOM     30  C4 A3TL A 201      -8.138 -14.170  10.369 -0.35 -0.00    -0.056 A 
DOCKED: ATOM     31  C5 A3TL A 201      -8.028 -13.340   9.251 -0.39 +0.00    +0.007 A 
DOCKED: ATOM     32  C6 A3TL A 201      -7.460 -13.849   8.085 -0.38 +0.00    +0.001 A 
DOCKED: ATOM     33  C7 A3TL A 201      -7.012 -15.171   8.042 -0.44 +0.00    +0.000 A 
DOCKED: ATOM     34  C8 A3TL A 201      -7.115 -15.986   9.164 -0.47 +0.00    +0.001 A 
DOCKED: ATOM     35  C9 A3TL A 201      -7.676 -15.484  10.334 -0.39 -0.00    +0.007 A 
DOCKED: ENDBRANCH  29  30
DOCKED: ENDBRANCH   2  29
DOCKED: ENDBRANCH   1   2
DOCKED: BRANCH   1  36
DOCKED: ATOM     36  O1 A3TL A 201     -11.578 -15.692  12.891 -0.17 +0.35    -0.391 OA
DOCKED: ATOM     37  H1 A3TL A 201     -11.679 -16.101  12.039 -0.11 -0.23    +0.210 HD
DOCKED: ENDBRANCH   1  36
DOCKED: BRANCH   1  38
DOCKED: ATOM     38  C52A3TL A 201      -9.334 -16.349  12.864 -0.30 -0.16    +0.171 C 
DOCKED: BRANCH  38  39
DOCKED: ATOM     39  C51A3TL A 201      -9.093 -17.071  14.176 -0.39 -0.14    +0.120 C 
DOCKED: BRANCH  39  40
DOCKED: ATOM     40  C53A3TL A 201     -10.151 -16.478  15.101 +0.79 -0.10    +0.066 C 
DOCKED: BRANCH  40  41
DOCKED: ATOM     41  C54A3TL A 201      -9.647 -15.372  15.989 -0.31 +0.03    -0.056 A 
DOCKED: ATOM     42  C55A3TL A 201      -9.247 -14.158  15.451 -0.33 -0.00    +0.007 A 
DOCKED: ATOM     43  C56A3TL A 201      -8.785 -13.141  16.277 +0.10 +0.00    +0.001 A 
DOCKED: ATOM     44  C57A3TL A 201      -8.733 -13.364  17.641 -0.20 +0.00    +0.000 A 
DOCKED: ATOM     45  C58A3TL A 201      -9.151 -14.581  18.179 -0.44 -0.00    +0.001 A 
DOCKED: ATOM     46  C59A3TL A 201      -9.611 -15.587  17.349 -0.39 -0.00    +0.007 A 
DOCKED: ENDBRANCH  40  41
DOCKED: ENDBRANCH  39  40
DOCKED: BRANCH  39  47
DOCKED: ATOM     47  N51A3TL A 201      -7.736 -16.750  14.602 -0.09 +0.18    -0.352 N 
DOCKED: ATOM     48  C61A3TL A 201      -7.083 -15.610  14.378 -0.19 -0.02    +0.241 C 
DOCKED: ATOM     49  O52A3TL A 201      -7.491 -14.705  13.662 -0.25 -0.02    -0.271 OA
DOCKED: ATOM     50  H51A3TL A 201      -7.236 -17.470  15.123 -0.10 -0.09    +0.163 HD
DOCKED: BRANCH  48  51
DOCKED: ATOM     51  C60A3TL A 201      -5.748 -15.530  15.060 -0.18 +0.02    +0.180 C 
DOCKED: BRANCH  51  52
DOCKED: ATOM     52  N52A3TL A 201      -5.800 -16.336  16.279 -0.08 +0.01    -0.346 N 
DOCKED: ATOM     53  C69A3TL A 201      -6.398 -15.974  17.417 -0.16 -0.03    +0.240 C 
DOCKED: ATOM     54  O54A3TL A 201      -6.766 -14.836  17.656 -0.10 +0.04    -0.271 OA
DOCKED: ATOM     55  H52A3TL A 201      -5.342 -17.247  16.258 +0.09 +0.00    +0.163 HD
DOCKED: BRANCH  53  56
DOCKED: ATOM     56  C68A3TL A 201      -6.532 -17.048  18.465 -0.31 -0.02    +0.174 C 
DOCKED: ATOM     57  C70A3TL A 201      -6.161 -16.594  19.875 -0.43 -0.01    +0.042 C 
DOCKED: BRANCH  56  58
DOCKED: ATOM     58  N54A3TL A 201      -5.707 -18.185  18.105 -0.19 +0.03    -0.324 N 
DOCKED: ATOM     59  C81A3TL A 201      -4.385 -18.088  18.023 -0.15 +0.08    +0.361 C 
DOCKED: ATOM     60  O58A3TL A 201      -3.776 -17.040  18.182 -0.15 -0.05    -0.238 OA
DOCKED: ATOM     61  H54A3TL A 201      -6.154 -19.081  17.909 -0.18 -0.04    +0.165 HD
DOCKED: BRANCH  59  62
DOCKED: ATOM     62  O59A3TL A 201      -3.662 -19.304  17.700 -0.26 -0.24    -0.299 OA
DOCKED: BRANCH  62  63
DOCKED: ATOM     63  CA5A3TL A 201      -2.372 -19.239  17.091 -0.13 +0.21    +0.219 C 
DOCKED: BRANCH  63  64
DOCKED: ATOM     64  C50A3TL A 201      -1.526 -18.139  17.696 -0.19 -0.02    -0.034 A 
DOCKED: ATOM     65  C63A3TL A 201      -1.198 -18.205  19.051 -0.09 +0.01    +0.009 A 
DOCKED: ATOM     66  C64A3TL A 201      -0.406 -17.212  19.631 -0.10 +0.00    +0.001 A 
DOCKED: ATOM     67  C65A3TL A 201       0.060 -16.151  18.859 -0.12 +0.00    +0.000 A 
DOCKED: ATOM     68  C66A3TL A 201      -0.263 -16.092  17.502 -0.19 +0.00    +0.001 A 
DOCKED: ATOM     69  C67A3TL A 201      -1.051 -17.086  16.913 -0.21 +0.00    +0.009 A 
DOCKED: ENDBRANCH  63  64
DOCKED: ENDBRANCH  62  63
DOCKED: ENDBRANCH  59  62
DOCKED: ENDBRANCH  56  58
DOCKED: ENDBRANCH  53  56
DOCKED: ENDBRANCH  51  52
DOCKED: BRANCH  51  70
DOCKED: ATOM     70  C62A3TL A 201      -4.588 -15.899  14.117 -0.43 +0.00    +0.009 C 
DOCKED: ATOM     71  CG5A3TL A 201      -3.786 -17.059  14.690 -0.40 +0.00    +0.012 C 
DOCKED: ATOM     72  CG6A3TL A 201      -5.053 -16.264  12.700 -0.49 +0.00    +0.012 C 
DOCKED: ENDBRANCH  51  70
DOCKED: ENDBRANCH  48  51
DOCKED: ENDBRANCH  39  47
DOCKED: ENDBRANCH  38  39
DOCKED: BRANCH  38  73
DOCKED: ATOM     73  O51A3TL A 201      -9.919 -17.288  11.965 +0.45 +0.76    -0.391 OA
DOCKED: ATOM     74  H51A3TL A 201     -10.521 -17.817  12.475 -0.31 -0.54    +0.210 HD
DOCKED: ENDBRANCH  38  73
DOCKED: ENDBRANCH   1  38
DOCKED: TORSDOF 27
DOCKED: TER
DOCKED: ENDMDL
________________________________________________________________________________


	BEGINNING GENETIC ALGORITHM DOCKING 2 of 10
Run: 2 Seed: 1159107481 654371051 [ Run 2 of 10 GA/GALS ]
Beginning LAMARCKIAN GENETIC ALGORITHM (LGA), with a maximum of 2500000 energy evaluations.

Final-Value: -11.454


	FINAL GENETIC ALGORITHM DOCKED STATE
	_______________________________________________


Detailed state:  trans -6.365 -14.118 14.909 quatxyzw 0.537920 0.708802 -0.220921 -0.399293 center -8.198 -14.354 13.542 ntor 27 -12.6011 -179.9568 88.4489 -175.7370 142.5174 -33.4245 -179.9978 178.0802 179.9323 -92.7418 -155.9316 27.4435 -98.6850 21.4558 57.8627 -170.6031 -21.6167 50.6898 179.9727 73.1951 69.2693 -164.9038 -13.8252 174.1747 -137.6986 -12.7411 -1.3134
State:	 -6.365 -14.118  14.909   0.587  0.773 -0.241 -132.932    -12.60 -179.96   88.45 -175.74  142.52  -33.42 -180.00  178.08  179.93  -92.74 -155.93   27.44  -98.68   21.46   57.86 -170.60  -21.62   50.69  179.97   73.20   69.27 -164.90  -13.83  174.17 -137.70  -12.74   -1.31

DOCKED: MODEL        2
DOCKED: USER    Run = 2
DOCKED: USER    DPF = dock.dpf
DOCKED: USER  
DOCKED: USER    Estimated Free Energy of Binding    =   -2.88 kcal/mol  [=(1)+(2)+(3)-(4)]
DOCKED: USER    Estimated Inhibition Constant, Ki   =    7.78 mM (millimolar)  [Temperature = 298.15 K]
DOCKED: USER    
DOCKED: USER    (1) Final Intermolecular Energy     =  -10.93 kcal/mol
DOCKED: USER        vdW + Hbond + desolv Energy     =  -11.33 kcal/mol
DOCKED: USER        Electrostatic Energy            =   +0.39 kcal/mol
DOCKED: USER    (2) Final Total Internal Energy     =   -0.52 kcal/mol
DOCKED: USER    (3) Torsional Free Energy           =   +8.05 kcal/mol
DOCKED: USER    (4) Unbound System's Energy  [=(2)] =   -0.52 kcal/mol
DOCKED: USER    
DOCKED: USER    
DOCKED: USER    NEWDPF move lig2p3c.pdbqt
DOCKED: USER    NEWDPF about -8.198000 -14.354000 13.542000
DOCKED: USER    NEWDPF tran0 -6.364701 -14.118350 14.908736
DOCKED: USER    NEWDPF quaternion0 0.537920 0.708802 -0.220921 -0.399293
DOCKED: USER    NEWDPF axisangle0 0.586722 0.773107 -0.240964 -132.932060
DOCKED: USER    NEWDPF quat0 0.586722 0.773107 -0.240964 -132.932060
DOCKED: USER    NEWDPF dihe0 -12.60 -179.96 88.45 -175.74 142.52 -33.42 -180.00 178.08 179.93 -92.74 -155.93 27.44 -98.68 21.46 57.86 -170.60 -21.62 50.69 179.97 73.20 69.27 -164.90 -13.83 174.17 -137.70 -12.74 -1.31 
DOCKED: USER  keepresnum = 1 
DOCKED: USER  
DOCKED: REMARK  27 active torsions:
DOCKED: REMARK  status: ('A' for Active; 'I' for Inactive)
DOCKED: REMARK    1  A    between atoms: CA@A_1  and  C@A_3 
DOCKED: REMARK    2  A    between atoms: CA@A_1  and  O9@A_28 
DOCKED: REMARK    3  A    between atoms: CA5@A_2  and  C50@A_41 
DOCKED: REMARK    4  A    between atoms: CA5@A_2  and  O59@A_62 
DOCKED: REMARK    5  A    between atoms: C1@A_8  and  N1@A_9 
DOCKED: REMARK    6  A    between atoms: C1@A_8  and  C3@A_17 
DOCKED: REMARK    7  A    between atoms: C1@A_8  and  C2@A_13 
DOCKED: REMARK       I    between atoms: N1@A_9  and  C11@A_30 
DOCKED: REMARK    8  A    between atoms: O1@A_11  and  C2@A_13 
DOCKED: REMARK    9  A    between atoms: C2@A_13  and  C52@A_47 
DOCKED: REMARK   10  A    between atoms: N2@A_14  and  C10@A_29 
DOCKED: REMARK       I    between atoms: N2@A_14  and  C19@A_38 
DOCKED: REMARK   11  A    between atoms: C3@A_17  and  C4@A_18 
DOCKED: REMARK   12  A    between atoms: N4@A_19  and  C18@A_37 
DOCKED: REMARK       I    between atoms: N4@A_19  and  C31@A_40 
DOCKED: REMARK   13  A    between atoms: O9@A_28  and  C31@A_40 
DOCKED: REMARK   14  A    between atoms: C10@A_29  and  C11@A_30 
DOCKED: REMARK   15  A    between atoms: C10@A_29  and  C12@A_31 
DOCKED: REMARK   16  A    between atoms: C18@A_37  and  C19@A_38 
DOCKED: REMARK   17  A    between atoms: C51@A_42  and  C52@A_47 
DOCKED: REMARK   18  A    between atoms: C51@A_42  and  C53@A_51 
DOCKED: REMARK   19  A    between atoms: C51@A_42  and  N51@A_43 
DOCKED: REMARK       I    between atoms: N51@A_43  and  C61@A_64 
DOCKED: REMARK   20  A    between atoms: O51@A_45  and  C52@A_47 
DOCKED: REMARK   21  A    between atoms: N52@A_48  and  C60@A_63 
DOCKED: REMARK       I    between atoms: N52@A_48  and  C69@A_72 
DOCKED: REMARK   22  A    between atoms: C53@A_51  and  C54@A_52 
DOCKED: REMARK   23  A    between atoms: N54@A_53  and  C68@A_71 
DOCKED: REMARK       I    between atoms: N54@A_53  and  C81@A_74 
DOCKED: REMARK   24  A    between atoms: O59@A_62  and  C81@A_74 
DOCKED: REMARK   25  A    between atoms: C60@A_63  and  C61@A_64 
DOCKED: REMARK   26  A    between atoms: C60@A_63  and  C62@A_65 
DOCKED: REMARK   27  A    between atoms: C68@A_71  and  C69@A_72 
DOCKED: USER                              x       y       z     vdW  Elec       q    Type
DOCKED: USER                           _______ _______ _______ _____ _____    ______ ____
DOCKED: ROOT
DOCKED: ATOM      1  C2 A3TL A 201      -8.180 -15.975  15.885 -0.24 -0.06    +0.171 C 
DOCKED: ENDROOT
DOCKED: BRANCH   1   2
DOCKED: ATOM      2  C1 A3TL A 201      -7.178 -15.416  16.879 -0.28 -0.01    +0.120 C 
DOCKED: BRANCH   2   3
DOCKED: ATOM      3  N1 A3TL A 201      -5.899 -15.206  16.238 -0.00 +0.00    -0.352 N 
DOCKED: ATOM      4  C11A3TL A 201      -4.774 -15.688  16.746 +0.77 -0.01    +0.241 C 
DOCKED: ATOM      5  O2 A3TL A 201      -4.731 -16.380  17.741 -0.15 +0.00    -0.271 OA
DOCKED: ATOM      6  H1 A3TL A 201      -5.862 -14.672  15.370 +0.05 +0.04    +0.163 HD
DOCKED: BRANCH   4   7
DOCKED: ATOM      7  C10A3TL A 201      -3.521 -15.281  16.043 +0.01 +0.03    +0.180 C 
DOCKED: BRANCH   7   8
DOCKED: ATOM      8  N2 A3TL A 201      -2.418 -15.833  16.819 -0.12 -0.10    -0.346 N 
DOCKED: ATOM      9  C19A3TL A 201      -2.447 -17.028  17.386 -0.14 +0.10    +0.240 C 
DOCKED: ATOM     10  O4 A3TL A 201      -3.413 -17.761  17.320 -0.13 -0.11    -0.271 OA
DOCKED: ATOM     11  H2 A3TL A 201      -1.577 -15.267  16.930 +0.08 +0.05    +0.163 HD
DOCKED: BRANCH   9  12
DOCKED: ATOM     12  C18A3TL A 201      -1.215 -17.428  18.148 -0.13 +0.10    +0.174 C 
DOCKED: ATOM     13  C20A3TL A 201      -0.614 -18.686  17.531 -0.21 +0.04    +0.042 C 
DOCKED: BRANCH  12  14
DOCKED: ATOM     14  N4 A3TL A 201      -1.510 -17.639  19.555 -0.05 -0.23    -0.324 N 
DOCKED: ATOM     15  C31A3TL A 201      -2.304 -16.822  20.255 -0.07 +0.14    +0.361 C 
DOCKED: ATOM     16  O8 A3TL A 201      -2.894 -15.870  19.766 -0.21 -0.06    -0.238 OA
DOCKED: ATOM     17  H4 A3TL A 201      -1.095 -18.442  20.027 +0.03 +0.20    +0.165 HD
DOCKED: BRANCH  15  18
DOCKED: ATOM     18  O9 A3TL A 201      -2.449 -17.078  21.682 -0.09 -0.08    -0.299 OA
DOCKED: BRANCH  18  19
DOCKED: ATOM     19  CA A3TL A 201      -1.337 -16.960  22.566 -0.04 +0.11    +0.219 C 
DOCKED: BRANCH  19  20
DOCKED: ATOM     20  C  A3TL A 201      -1.377 -15.694  23.395 -0.09 -0.02    -0.034 A 
DOCKED: ATOM     21  C13A3TL A 201      -1.220 -14.455  22.756 -0.23 +0.00    +0.009 A 
DOCKED: ATOM     22  C14A3TL A 201      -1.271 -13.274  23.488 -0.31 +0.00    +0.001 A 
DOCKED: ATOM     23  C15A3TL A 201      -1.474 -13.324  24.870 -0.20 +0.00    +0.000 A 
DOCKED: ATOM     24  C16A3TL A 201      -1.632 -14.558  25.509 -0.17 +0.00    +0.001 A 
DOCKED: ATOM     25  C17A3TL A 201      -1.588 -15.746  24.766 -0.09 +0.01    +0.009 A 
DOCKED: ENDBRANCH  19  20
DOCKED: ENDBRANCH  18  19
DOCKED: ENDBRANCH  15  18
DOCKED: ENDBRANCH  12  14
DOCKED: ENDBRANCH   9  12
DOCKED: ENDBRANCH   7   8
DOCKED: BRANCH   7  26
DOCKED: ATOM     26  C12A3TL A 201      -3.485 -15.759  14.592 -0.46 +0.00    +0.009 C 
DOCKED: ATOM     27  CG1A3TL A 201      -3.006 -14.709  13.586 +0.05 +0.00    +0.012 C 
DOCKED: ATOM     28  CG2A3TL A 201      -2.659 -17.033  14.440 -0.31 +0.00    +0.012 C 
DOCKED: ENDBRANCH   7  26
DOCKED: ENDBRANCH   4   7
DOCKED: ENDBRANCH   2   3
DOCKED: BRANCH   2  29
DOCKED: ATOM     29  C3 A3TL A 201      -7.668 -14.090  17.454 -0.40 +0.00    +0.066 C 
DOCKED: BRANCH  29  30
DOCKED: ATOM     30  C4 A3TL A 201      -8.918 -14.352  18.252 -0.40 -0.00    -0.056 A 
DOCKED: ATOM     31  C5 A3TL A 201      -8.832 -15.042  19.463 -0.49 +0.00    +0.007 A 
DOCKED: ATOM     32  C6 A3TL A 201      -9.999 -15.283  20.186 -0.55 +0.00    +0.001 A 
DOCKED: ATOM     33  C7 A3TL A 201     -11.231 -14.841  19.699 -0.10 -0.00    +0.000 A 
DOCKED: ATOM     34  C8 A3TL A 201     -11.304 -14.145  18.498 -0.06 -0.00    +0.001 A 
DOCKED: ATOM     35  C9 A3TL A 201     -10.144 -13.895  17.772 -0.30 -0.00    +0.007 A 
DOCKED: ENDBRANCH  29  30
DOCKED: ENDBRANCH   2  29
DOCKED: ENDBRANCH   1   2
DOCKED: BRANCH   1  36
DOCKED: ATOM     36  O1 A3TL A 201      -9.228 -16.533  16.647 -0.19 +0.26    -0.391 OA
DOCKED: ATOM     37  H1 A3TL A 201      -9.940 -16.703  16.041 -0.16 -0.29    +0.210 HD
DOCKED: ENDBRANCH   1  36
DOCKED: BRANCH   1  38
DOCKED: ATOM     38  C52A3TL A 201      -8.828 -14.943  14.980 -0.23 -0.04    +0.171 C 
DOCKED: BRANCH  38  39
DOCKED: ATOM     39  C51A3TL A 201      -7.953 -14.391  13.871 -0.31 +0.01    +0.120 C 
DOCKED: BRANCH  39  40
DOCKED: ATOM     40  C53A3TL A 201      -8.956 -13.740  12.923 -0.34 +0.01    +0.066 C 
DOCKED: BRANCH  40  41
DOCKED: ATOM     41  C54A3TL A 201     -10.188 -13.202  13.602 -0.29 -0.00    -0.056 A 
DOCKED: ATOM     42  C55A3TL A 201     -11.413 -13.834  13.452 -0.31 -0.00    +0.007 A 
DOCKED: ATOM     43  C56A3TL A 201     -12.544 -13.333  14.084 -0.19 -0.00    +0.001 A 
DOCKED: ATOM     44  C57A3TL A 201     -12.422 -12.196  14.863 -0.47 +0.00    +0.000 A 
DOCKED: ATOM     45  C58A3TL A 201     -11.185 -11.574  15.024 +0.08 +0.00    +0.001 A 
DOCKED: ATOM     46  C59A3TL A 201     -10.064 -12.081  14.393 +0.17 +0.00    +0.007 A 
DOCKED: ENDBRANCH  40  41
DOCKED: ENDBRANCH  39  40
DOCKED: BRANCH  39  47
DOCKED: ATOM     47  N51A3TL A 201      -7.262 -15.521  13.263 -0.08 +0.04    -0.352 N 
DOCKED: ATOM     48  C61A3TL A 201      -7.821 -16.647  12.819 -0.21 -0.16    +0.241 C 
DOCKED: ATOM     49  O52A3TL A 201      -8.997 -16.948  12.977 -0.23 +0.35    -0.271 OA
DOCKED: ATOM     50  H51A3TL A 201      -6.250 -15.444  13.169 +0.10 +0.01    +0.163 HD
DOCKED: BRANCH  48  51
DOCKED: ATOM     51  C60A3TL A 201      -6.863 -17.567  12.120 +0.61 -0.13    +0.180 C 
DOCKED: BRANCH  51  52
DOCKED: ATOM     52  N52A3TL A 201      -6.637 -17.063  10.767 +0.17 +0.11    -0.346 N 
DOCKED: ATOM     53  C69A3TL A 201      -7.585 -16.889   9.841 -0.26 -0.08    +0.240 C 
DOCKED: ATOM     54  O54A3TL A 201      -8.710 -17.351   9.931 +0.29 +0.22    -0.271 OA
DOCKED: ATOM     55  H52A3TL A 201      -5.680 -16.825  10.508 +0.13 -0.00    +0.163 HD
DOCKED: BRANCH  53  56
DOCKED: ATOM     56  C68A3TL A 201      -7.169 -16.142   8.601 -0.44 +0.01    +0.174 C 
DOCKED: ATOM     57  C70A3TL A 201      -6.784 -14.685   8.851 -0.00 +0.01    +0.042 C 
DOCKED: BRANCH  56  58
DOCKED: ATOM     58  N54A3TL A 201      -8.241 -16.185   7.625 -0.27 -0.01    -0.324 N 
DOCKED: ATOM     59  C81A3TL A 201      -9.177 -15.244   7.579 -0.28 +0.02    +0.361 C 
DOCKED: ATOM     60  O58A3TL A 201      -9.244 -14.320   8.376 -0.26 -0.00    -0.238 OA
DOCKED: ATOM     61  H54A3TL A 201      -8.277 -16.956   6.959 -0.05 -0.01    +0.165 HD
DOCKED: BRANCH  59  62
DOCKED: ATOM     62  O59A3TL A 201     -10.172 -15.367   6.528 -0.85 -0.02    -0.299 OA
DOCKED: BRANCH  62  63
DOCKED: ATOM     63  CA5A3TL A 201     -11.015 -14.264   6.197 -0.37 -0.07    +0.219 C 
DOCKED: BRANCH  63  64
DOCKED: ATOM     64  C50A3TL A 201     -11.712 -13.709   7.420 -0.34 +0.01    -0.034 A 
DOCKED: ATOM     65  C63A3TL A 201     -11.973 -14.559   8.496 -0.34 -0.00    +0.009 A 
DOCKED: ATOM     66  C64A3TL A 201     -12.601 -14.069   9.642 -0.26 -0.00    +0.001 A 
DOCKED: ATOM     67  C65A3TL A 201     -12.969 -12.729   9.719 -0.26 +0.00    +0.000 A 
DOCKED: ATOM     68  C66A3TL A 201     -12.699 -11.878   8.644 -0.25 +0.00    +0.001 A 
DOCKED: ATOM     69  C67A3TL A 201     -12.066 -12.360   7.495 -0.28 -0.00    +0.009 A 
DOCKED: ENDBRANCH  63  64
DOCKED: ENDBRANCH  62  63
DOCKED: ENDBRANCH  59  62
DOCKED: ENDBRANCH  56  58
DOCKED: ENDBRANCH  53  56
DOCKED: ENDBRANCH  51  52
DOCKED: BRANCH  51  70
DOCKED: ATOM     70  C62A3TL A 201      -5.570 -17.785  12.928 +0.62 -0.00    +0.009 C 
DOCKED: ATOM     71  CG5A3TL A 201      -4.414 -17.022  12.297 -0.39 +0.00    +0.012 C 
DOCKED: ATOM     72  CG6A3TL A 201      -5.699 -17.369  14.401 -0.36 -0.00    +0.012 C 
DOCKED: ENDBRANCH  51  70
DOCKED: ENDBRANCH  48  51
DOCKED: ENDBRANCH  39  47
DOCKED: ENDBRANCH  38  39
DOCKED: BRANCH  38  73
DOCKED: ATOM     73  O51A3TL A 201      -9.943 -15.581  14.361 -0.11 +0.30    -0.391 OA
DOCKED: ATOM     74  H51A3TL A 201      -9.967 -16.471  14.690 -0.06 -0.29    +0.210 HD
DOCKED: ENDBRANCH  38  73
DOCKED: ENDBRANCH   1  38
DOCKED: TORSDOF 27
DOCKED: TER
DOCKED: ENDMDL
________________________________________________________________________________


	BEGINNING GENETIC ALGORITHM DOCKING 3 of 10
Run: 3 Seed: 1115366420 1361844440 [ Run 3 of 10 GA/GALS ]
Beginning LAMARCKIAN GENETIC ALGORITHM (LGA), with a maximum of 2500000 energy evaluations.

Final-Value: -6.760


	FINAL GENETIC ALGORITHM DOCKED STATE
	_______________________________________________


Detailed state:  trans -9.954 -15.881 14.381 quatxyzw 0.288521 -0.679087 -0.399645 0.543949 center -8.198 -14.354 13.542 ntor 27 156.4910 129.5694 -73.9268 105.7242 105.9141 103.0690 -122.7224 145.3022 89.9318 129.2110 -28.4408 70.9812 116.5063 157.7361 -171.7245 -158.9598 -164.2688 170.9308 34.0936 179.7194 94.7955 9.3693 33.4088 -152.6268 142.9001 -15.5471 39.5637
State:	 -9.954 -15.881  14.381   0.344 -0.809 -0.476 114.094    156.49  129.57  -73.93  105.72  105.91  103.07 -122.72  145.30   89.93  129.21  -28.44   70.98  116.51  157.74 -171.72 -158.96 -164.27  170.93   34.09  179.72   94.80    9.37   33.41 -152.63  142.90  -15.55   39.56

DOCKED: MODEL        3
DOCKED: USER    Run = 3
DOCKED: USER    DPF = dock.dpf
DOCKED: USER  
DOCKED: USER    Estimated Free Energy of Binding    =   +6.32 kcal/mol  [=(1)+(2)+(3)-(4)]
DOCKED: USER    
DOCKED: USER    (1) Final Intermolecular Energy     =   -1.73 kcal/mol
DOCKED: USER        vdW + Hbond + desolv Energy     =   -1.50 kcal/mol
DOCKED: USER        Electrostatic Energy            =   -0.23 kcal/mol
DOCKED: USER    (2) Final Total Internal Energy     =   -5.03 kcal/mol
DOCKED: USER    (3) Torsional Free Energy           =   +8.05 kcal/mol
DOCKED: USER    (4) Unbound System's Energy  [=(2)] =   -5.03 kcal/mol
DOCKED: USER    
DOCKED: USER    
DOCKED: USER    NEWDPF move lig2p3c.pdbqt
DOCKED: USER    NEWDPF about -8.198000 -14.354000 13.542000
DOCKED: USER    NEWDPF tran0 -9.953816 -15.880528 14.380724
DOCKED: USER    NEWDPF quaternion0 0.288521 -0.679087 -0.399645 0.543949
DOCKED: USER    NEWDPF axisangle0 0.343839 -0.809286 -0.476268 114.094293
DOCKED: USER    NEWDPF quat0 0.343839 -0.809286 -0.476268 114.094293
DOCKED: USER    NEWDPF dihe0 156.49 129.57 -73.93 105.72 105.91 103.07 -122.72 145.30 89.93 129.21 -28.44 70.98 116.51 157.74 -171.72 -158.96 -164.27 170.93 34.09 179.72 94.80 9.37 33.41 -152.63 142.90 -15.55 39.56 
DOCKED: USER  keepresnum = 1 
DOCKED: USER  
DOCKED: REMARK  27 active torsions:
DOCKED: REMARK  status: ('A' for Active; 'I' for Inactive)
DOCKED: REMARK    1  A    between atoms: CA@A_1  and  C@A_3 
DOCKED: REMARK    2  A    between atoms: CA@A_1  and  O9@A_28 
DOCKED: REMARK    3  A    between atoms: CA5@A_2  and  C50@A_41 
DOCKED: REMARK    4  A    between atoms: CA5@A_2  and  O59@A_62 
DOCKED: REMARK    5  A    between atoms: C1@A_8  and  N1@A_9 
DOCKED: REMARK    6  A    between atoms: C1@A_8  and  C3@A_17 
DOCKED: REMARK    7  A    between atoms: C1@A_8  and  C2@A_13 
DOCKED: REMARK       I    between atoms: N1@A_9  and  C11@A_30 
DOCKED: REMARK    8  A    between atoms: O1@A_11  and  C2@A_13 
DOCKED: REMARK    9  A    between atoms: C2@A_13  and  C52@A_47 
DOCKED: REMARK   10  A    between atoms: N2@A_14  and  C10@A_29 
DOCKED: REMARK       I    between atoms: N2@A_14  and  C19@A_38 
DOCKED: REMARK   11  A    between atoms: C3@A_17  and  C4@A_18 
DOCKED: REMARK   12  A    between atoms: N4@A_19  and  C18@A_37 
DOCKED: REMARK       I    between atoms: N4@A_19  and  C31@A_40 
DOCKED: REMARK   13  A    between atoms: O9@A_28  and  C31@A_40 
DOCKED: REMARK   14  A    between atoms: C10@A_29  and  C11@A_30 
DOCKED: REMARK   15  A    between atoms: C10@A_29  and  C12@A_31 
DOCKED: REMARK   16  A    between atoms: C18@A_37  and  C19@A_38 
DOCKED: REMARK   17  A    between atoms: C51@A_42  and  C52@A_47 
DOCKED: REMARK   18  A    between atoms: C51@A_42  and  C53@A_51 
DOCKED: REMARK   19  A    between atoms: C51@A_42  and  N51@A_43 
DOCKED: REMARK       I    between atoms: N51@A_43  and  C61@A_64 
DOCKED: REMARK   20  A    between atoms: O51@A_45  and  C52@A_47 
DOCKED: REMARK   21  A    between atoms: N52@A_48  and  C60@A_63 
DOCKED: REMARK       I    between atoms: N52@A_48  and  C69@A_72 
DOCKED: REMARK   22  A    between atoms: C53@A_51  and  C54@A_52 
DOCKED: REMARK   23  A    between atoms: N54@A_53  and  C68@A_71 
DOCKED: REMARK       I    between atoms: N54@A_53  and  C81@A_74 
DOCKED: REMARK   24  A    between atoms: O59@A_62  and  C81@A_74 
DOCKED: REMARK   25  A    between atoms: C60@A_63  and  C61@A_64 
DOCKED: REMARK   26  A    between atoms: C60@A_63  and  C62@A_65 
DOCKED: REMARK   27  A    between atoms: C68@A_71  and  C69@A_72 
DOCKED: USER                              x       y       z     vdW  Elec       q    Type
DOCKED: USER                           _______ _______ _______ _____ _____    ______ ____
DOCKED: ROOT
DOCKED: ATOM      1  C2 A3TL A 201      -7.626 -16.897  15.495 -0.03 -0.08    +0.171 C 
DOCKED: ENDROOT
DOCKED: BRANCH   1   2
DOCKED: ATOM      2  C1 A3TL A 201      -8.849 -16.856  16.394 +0.08 -0.08    +0.120 C 
DOCKED: BRANCH   2   3
DOCKED: ATOM      3  N1 A3TL A 201      -8.628 -15.952  17.501 -0.13 +0.08    -0.352 N 
DOCKED: ATOM      4  C11A3TL A 201      -7.948 -16.319  18.578 -0.26 -0.01    +0.241 C 
DOCKED: ATOM      5  O2 A3TL A 201      -7.416 -17.402  18.698 -0.57 +0.01    -0.271 OA
DOCKED: ATOM      6  H1 A3TL A 201      -9.006 -15.006  17.451 +0.12 -0.02    +0.163 HD
DOCKED: BRANCH   4   7
DOCKED: ATOM      7  C10A3TL A 201      -7.913 -15.322  19.689 -0.40 +0.00    +0.180 C 
DOCKED: BRANCH   7   8
DOCKED: ATOM      8  N2 A3TL A 201      -6.754 -15.659  20.506 -0.22 +0.03    -0.346 N 
DOCKED: ATOM      9  C19A3TL A 201      -6.837 -16.217  21.702 +0.03 -0.14    +0.240 C 
DOCKED: ATOM     10  O4 A3TL A 201      -7.900 -16.480  22.229 +1.24 +0.22    -0.271 OA
DOCKED: ATOM     11  H2 A3TL A 201      -5.827 -15.453  20.134 +0.05 -0.01    +0.163 HD
DOCKED: BRANCH   9  12
DOCKED: ATOM     12  C18A3TL A 201      -5.534 -16.490  22.397 +0.30 -0.14    +0.174 C 
DOCKED: ATOM     13  C20A3TL A 201      -5.235 -15.370  23.389 +0.55 -0.01    +0.042 C 
DOCKED: BRANCH  12  14
DOCKED: ATOM     14  N4 A3TL A 201      -4.447 -16.633  21.445 -0.09 +0.12    -0.324 N 
DOCKED: ATOM     15  C31A3TL A 201      -3.733 -15.591  21.005 -0.17 +0.07    +0.361 C 
DOCKED: ATOM     16  O8 A3TL A 201      -3.891 -14.446  21.404 -0.78 -0.14    -0.238 OA
DOCKED: ATOM     17  H4 A3TL A 201      -4.219 -17.564  21.098 -0.32 -0.19    +0.165 HD
DOCKED: BRANCH  15  18
DOCKED: ATOM     18  O9 A3TL A 201      -2.732 -15.842  19.976 -0.18 -0.09    -0.299 OA
DOCKED: BRANCH  18  19
DOCKED: ATOM     19  CA A3TL A 201      -1.452 -16.372  20.311 -0.10 +0.10    +0.219 C 
DOCKED: BRANCH  19  20
DOCKED: ATOM     20  C  A3TL A 201      -1.397 -16.936  21.715 -0.09 -0.02    -0.034 A 
DOCKED: ATOM     21  C13A3TL A 201      -0.757 -16.197  22.722 -0.06 +0.00    +0.009 A 
DOCKED: ATOM     22  C14A3TL A 201      -0.707 -16.679  24.025 -0.02 +0.00    +0.001 A 
DOCKED: ATOM     23  C15A3TL A 201      -1.292 -17.911  24.331 -0.03 +0.00    +0.000 A 
DOCKED: ATOM     24  C16A3TL A 201      -1.932 -18.649  23.329 -0.09 +0.00    +0.001 A 
DOCKED: ATOM     25  C17A3TL A 201      -1.987 -18.155  22.018 +0.16 +0.01    +0.009 A 
DOCKED: ENDBRANCH  19  20
DOCKED: ENDBRANCH  18  19
DOCKED: ENDBRANCH  15  18
DOCKED: ENDBRANCH  12  14
DOCKED: ENDBRANCH   9  12
DOCKED: ENDBRANCH   7   8
DOCKED: BRANCH   7  26
DOCKED: ATOM     26  C12A3TL A 201      -7.844 -13.883  19.181 -0.56 +0.00    +0.009 C 
DOCKED: ATOM     27  CG1A3TL A 201      -7.196 -13.723  17.803 -0.02 -0.00    +0.012 C 
DOCKED: ATOM     28  CG2A3TL A 201      -9.216 -13.217  19.184 -0.05 +0.00    +0.012 C 
DOCKED: ENDBRANCH   7  26
DOCKED: ENDBRANCH   4   7
DOCKED: ENDBRANCH   2   3
DOCKED: BRANCH   2  29
DOCKED: ATOM     29  C3 A3TL A 201     -10.077 -16.395  15.615 +0.74 -0.09    +0.066 C 
DOCKED: BRANCH  29  30
DOCKED: ATOM     30  C4 A3TL A 201      -9.948 -14.919  15.354 -0.29 +0.03    -0.056 A 
DOCKED: ATOM     31  C5 A3TL A 201     -11.098 -14.144  15.184 -0.33 -0.00    +0.007 A 
DOCKED: ATOM     32  C6 A3TL A 201     -10.962 -12.779  14.936 -0.39 +0.00    +0.001 A 
DOCKED: ATOM     33  C7 A3TL A 201      -9.693 -12.203  14.857 +0.45 +0.00    +0.000 A 
DOCKED: ATOM     34  C8 A3TL A 201      -8.554 -12.981  15.039 -0.20 +0.00    +0.001 A 
DOCKED: ATOM     35  C9 A3TL A 201      -8.681 -14.343  15.293 -0.33 -0.00    +0.007 A 
DOCKED: ENDBRANCH  29  30
DOCKED: ENDBRANCH   2  29
DOCKED: ENDBRANCH   1   2
DOCKED: BRANCH   1  36
DOCKED: ATOM     36  O1 A3TL A 201      -6.725 -17.807  16.089 +0.95 +0.19    -0.391 OA
DOCKED: ATOM     37  H1 A3TL A 201      -6.949 -17.843  17.012 -0.45 -0.11    +0.210 HD
DOCKED: ENDBRANCH   1  36
DOCKED: BRANCH   1  38
DOCKED: ATOM     38  C52A3TL A 201      -7.879 -17.419  14.092 -0.29 -0.14    +0.171 C 
DOCKED: BRANCH  38  39
DOCKED: ATOM     39  C51A3TL A 201      -7.672 -16.422  12.967 -0.28 -0.06    +0.120 C 
DOCKED: BRANCH  39  40
DOCKED: ATOM     40  C53A3TL A 201      -7.514 -17.311  11.737 +0.27 -0.07    +0.066 C 
DOCKED: BRANCH  40  41
DOCKED: ATOM     41  C54A3TL A 201      -7.814 -16.620  10.434 -0.37 +0.03    -0.056 A 
DOCKED: ATOM     42  C55A3TL A 201      -8.994 -15.914  10.261 -0.37 -0.00    +0.007 A 
DOCKED: ATOM     43  C56A3TL A 201      -9.263 -15.277   9.056 -0.38 -0.00    +0.001 A 
DOCKED: ATOM     44  C57A3TL A 201      -8.330 -15.361   8.037 -0.49 +0.00    +0.000 A 
DOCKED: ATOM     45  C58A3TL A 201      -7.138 -16.059   8.221 -0.50 +0.00    +0.001 A 
DOCKED: ATOM     46  C59A3TL A 201      -6.879 -16.689   9.424 -0.31 -0.00    +0.007 A 
DOCKED: ENDBRANCH  40  41
DOCKED: ENDBRANCH  39  40
DOCKED: BRANCH  39  47
DOCKED: ATOM     47  N51A3TL A 201      -6.461 -15.672  13.274 -0.12 -0.00    -0.352 N 
DOCKED: ATOM     48  C61A3TL A 201      -5.210 -16.038  13.000 -0.31 +0.02    +0.241 C 
DOCKED: ATOM     49  O52A3TL A 201      -4.887 -17.134  12.558 -0.23 -0.01    -0.271 OA
DOCKED: ATOM     50  H51A3TL A 201      -6.584 -14.776  13.745 +0.09 +0.03    +0.163 HD
DOCKED: BRANCH  48  51
DOCKED: ATOM     51  C60A3TL A 201      -4.185 -14.988  13.317 +0.01 +0.04    +0.180 C 
DOCKED: BRANCH  51  52
DOCKED: ATOM     52  N52A3TL A 201      -3.633 -15.264  14.643 -0.16 -0.09    -0.346 N 
DOCKED: ATOM     53  C69A3TL A 201      -3.216 -16.458  15.071 -0.27 +0.06    +0.240 C 
DOCKED: ATOM     54  O54A3TL A 201      -3.463 -17.506  14.498 -0.23 -0.08    -0.271 OA
DOCKED: ATOM     55  H52A3TL A 201      -3.561 -14.481  15.293 +0.10 +0.05    +0.163 HD
DOCKED: BRANCH  53  56
DOCKED: ATOM     56  C68A3TL A 201      -2.470 -16.469  16.380 -0.24 +0.06    +0.174 C 
DOCKED: ATOM     57  C70A3TL A 201      -3.233 -15.830  17.538 -0.02 +0.01    +0.042 C 
DOCKED: BRANCH  56  58
DOCKED: ATOM     58  N54A3TL A 201      -1.199 -15.788  16.221 -0.11 -0.11    -0.324 N 
DOCKED: ATOM     59  C81A3TL A 201      -1.015 -14.548  16.659 -0.22 +0.11    +0.361 C 
DOCKED: ATOM     60  O58A3TL A 201      -1.901 -13.873  17.163 -0.09 -0.07    -0.238 OA
DOCKED: ATOM     61  H54A3TL A 201      -0.428 -16.274  15.763 +0.07 +0.06    +0.165 HD
DOCKED: BRANCH  59  62
DOCKED: ATOM     62  O59A3TL A 201       0.313 -13.987  16.486 -0.20 -0.09    -0.299 OA
DOCKED: BRANCH  62  63
DOCKED: ATOM     63  CA5A3TL A 201       1.460 -14.836  16.471 -0.01 +0.07    +0.219 C 
DOCKED: BRANCH  63  64
DOCKED: ATOM     64  C50A3TL A 201       1.109 -16.254  16.869 -0.15 -0.01    -0.034 A 
DOCKED: ATOM     65  C63A3TL A 201       0.572 -16.489  18.135 -0.13 +0.00    +0.009 A 
DOCKED: ATOM     66  C64A3TL A 201       0.224 -17.784  18.522 -0.12 +0.00    +0.001 A 
DOCKED: ATOM     67  C65A3TL A 201       0.411 -18.849  17.644 -0.18 +0.00    +0.000 A 
DOCKED: ATOM     68  C66A3TL A 201       0.941 -18.610  16.374 -0.04 +0.00    +0.001 A 
DOCKED: ATOM     69  C67A3TL A 201       1.287 -17.314  15.978 +0.28 +0.00    +0.009 A 
DOCKED: ENDBRANCH  63  64
DOCKED: ENDBRANCH  62  63
DOCKED: ENDBRANCH  59  62
DOCKED: ENDBRANCH  56  58
DOCKED: ENDBRANCH  53  56
DOCKED: ENDBRANCH  51  52
DOCKED: BRANCH  51  70
DOCKED: ATOM     70  C62A3TL A 201      -3.119 -14.861  12.213 +0.23 +0.00    +0.009 C 
DOCKED: ATOM     71  CG5A3TL A 201      -2.167 -13.714  12.523 +1.75 +0.00    +0.012 C 
DOCKED: ATOM     72  CG6A3TL A 201      -2.304 -16.146  12.007 +3.07 -0.00    +0.012 C 
DOCKED: ENDBRANCH  51  70
DOCKED: ENDBRANCH  48  51
DOCKED: ENDBRANCH  39  47
DOCKED: ENDBRANCH  38  39
DOCKED: BRANCH  38  73
DOCKED: ATOM     73  O51A3TL A 201      -6.965 -18.492  13.881 -0.21 +0.26    -0.391 OA
DOCKED: ATOM     74  H51A3TL A 201      -6.104 -18.169  14.120 +0.12 -0.05    +0.210 HD
DOCKED: ENDBRANCH  38  73
DOCKED: ENDBRANCH   1  38
DOCKED: TORSDOF 27
DOCKED: TER
DOCKED: ENDMDL
________________________________________________________________________________


	BEGINNING GENETIC ALGORITHM DOCKING 4 of 10
Run: 4 Seed: 1693768413 1180503363 [ Run 4 of 10 GA/GALS ]
Beginning LAMARCKIAN GENETIC ALGORITHM (LGA), with a maximum of 2500000 energy evaluations.

Final-Value: -14.815


	FINAL GENETIC ALGORITHM DOCKED STATE
	_______________________________________________


Detailed state:  trans -7.702 -13.508 13.903 quatxyzw -0.112093 0.140147 -0.065458 -0.981585 center -8.198 -14.354 13.542 ntor 27 92.2681 160.8486 46.5276 -155.8164 -88.3008 37.1528 133.4407 -48.0168 14.0259 16.3030 112.1114 146.0318 158.0291 -142.9465 -175.5818 32.5719 -177.8644 -35.9264 -172.9579 -43.5154 156.1572 -176.1287 -166.4267 146.6092 -40.4971 169.6940 100.8972
State:	 -7.702 -13.508  13.903  -0.587  0.734 -0.343 -22.025     92.27  160.85   46.53 -155.82  -88.30   37.15  133.44  -48.02   14.03   16.30  112.11  146.03  158.03 -142.95 -175.58   32.57 -177.86  -35.93 -172.96  -43.52  156.16 -176.13 -166.43  146.61  -40.50  169.69  100.90

DOCKED: MODEL        4
DOCKED: USER    Run = 4
DOCKED: USER    DPF = dock.dpf
DOCKED: USER  
DOCKED: USER    Estimated Free Energy of Binding    =   -4.66 kcal/mol  [=(1)+(2)+(3)-(4)]
DOCKED: USER    Estimated Inhibition Constant, Ki   =  386.63 uM (micromolar)  [Temperature = 298.15 K]
DOCKED: USER    
DOCKED: USER    (1) Final Intermolecular Energy     =  -12.71 kcal/mol
DOCKED: USER        vdW + Hbond + desolv Energy     =  -13.11 kcal/mol
DOCKED: USER        Electrostatic Energy            =   +0.40 kcal/mol
DOCKED: USER    (2) Final Total Internal Energy     =   -2.11 kcal/mol
DOCKED: USER    (3) Torsional Free Energy           =   +8.05 kcal/mol
DOCKED: USER    (4) Unbound System's Energy  [=(2)] =   -2.11 kcal/mol
DOCKED: USER    
DOCKED: USER    
DOCKED: USER    NEWDPF move lig2p3c.pdbqt
DOCKED: USER    NEWDPF about -8.198000 -14.354000 13.542000
DOCKED: USER    NEWDPF tran0 -7.701840 -13.508487 13.902884
DOCKED: USER    NEWDPF quaternion0 -0.112093 0.140147 -0.065458 -0.981585
DOCKED: USER    NEWDPF axisangle0 -0.586798 0.733655 -0.342664 -22.025268
DOCKED: USER    NEWDPF quat0 -0.586798 0.733655 -0.342664 -22.025268
DOCKED: USER    NEWDPF dihe0 92.27 160.85 46.53 -155.82 -88.30 37.15 133.44 -48.02 14.03 16.30 112.11 146.03 158.03 -142.95 -175.58 32.57 -177.86 -35.93 -172.96 -43.52 156.16 -176.13 -166.43 146.61 -40.50 169.69 100.90 
DOCKED: USER  keepresnum = 1 
DOCKED: USER  
DOCKED: REMARK  27 active torsions:
DOCKED: REMARK  status: ('A' for Active; 'I' for Inactive)
DOCKED: REMARK    1  A    between atoms: CA@A_1  and  C@A_3 
DOCKED: REMARK    2  A    between atoms: CA@A_1  and  O9@A_28 
DOCKED: REMARK    3  A    between atoms: CA5@A_2  and  C50@A_41 
DOCKED: REMARK    4  A    between atoms: CA5@A_2  and  O59@A_62 
DOCKED: REMARK    5  A    between atoms: C1@A_8  and  N1@A_9 
DOCKED: REMARK    6  A    between atoms: C1@A_8  and  C3@A_17 
DOCKED: REMARK    7  A    between atoms: C1@A_8  and  C2@A_13 
DOCKED: REMARK       I    between atoms: N1@A_9  and  C11@A_30 
DOCKED: REMARK    8  A    between atoms: O1@A_11  and  C2@A_13 
DOCKED: REMARK    9  A    between atoms: C2@A_13  and  C52@A_47 
DOCKED: REMARK   10  A    between atoms: N2@A_14  and  C10@A_29 
DOCKED: REMARK       I    between atoms: N2@A_14  and  C19@A_38 
DOCKED: REMARK   11  A    between atoms: C3@A_17  and  C4@A_18 
DOCKED: REMARK   12  A    between atoms: N4@A_19  and  C18@A_37 
DOCKED: REMARK       I    between atoms: N4@A_19  and  C31@A_40 
DOCKED: REMARK   13  A    between atoms: O9@A_28  and  C31@A_40 
DOCKED: REMARK   14  A    between atoms: C10@A_29  and  C11@A_30 
DOCKED: REMARK   15  A    between atoms: C10@A_29  and  C12@A_31 
DOCKED: REMARK   16  A    between atoms: C18@A_37  and  C19@A_38 
DOCKED: REMARK   17  A    between atoms: C51@A_42  and  C52@A_47 
DOCKED: REMARK   18  A    between atoms: C51@A_42  and  C53@A_51 
DOCKED: REMARK   19  A    between atoms: C51@A_42  and  N51@A_43 
DOCKED: REMARK       I    between atoms: N51@A_43  and  C61@A_64 
DOCKED: REMARK   20  A    between atoms: O51@A_45  and  C52@A_47 
DOCKED: REMARK   21  A    between atoms: N52@A_48  and  C60@A_63 
DOCKED: REMARK       I    between atoms: N52@A_48  and  C69@A_72 
DOCKED: REMARK   22  A    between atoms: C53@A_51  and  C54@A_52 
DOCKED: REMARK   23  A    between atoms: N54@A_53  and  C68@A_71 
DOCKED: REMARK       I    between atoms: N54@A_53  and  C81@A_74 
DOCKED: REMARK   24  A    between atoms: O59@A_62  and  C81@A_74 
DOCKED: REMARK   25  A    between atoms: C60@A_63  and  C61@A_64 
DOCKED: REMARK   26  A    between atoms: C60@A_63  and  C62@A_65 
DOCKED: REMARK   27  A    between atoms: C68@A_71  and  C69@A_72 
DOCKED: USER                              x       y       z     vdW  Elec       q    Type
DOCKED: USER                           _______ _______ _______ _____ _____    ______ ____
DOCKED: ROOT
DOCKED: ATOM      1  C2 A3TL A 201      -9.459 -15.314  15.064 -0.24 -0.09    +0.171 C 
DOCKED: ENDROOT
DOCKED: BRANCH   1   2
DOCKED: ATOM      2  C1 A3TL A 201     -10.079 -14.160  14.295 -0.28 -0.02    +0.120 C 
DOCKED: BRANCH   2   3
DOCKED: ATOM      3  N1 A3TL A 201      -9.668 -14.203  12.910 -0.06 +0.04    -0.352 N 
DOCKED: ATOM      4  C11A3TL A 201     -10.230 -15.029  12.039 -0.19 -0.10    +0.241 C 
DOCKED: ATOM      5  O2 A3TL A 201     -11.156 -15.764  12.313 -0.11 +0.23    -0.271 OA
DOCKED: ATOM      6  H1 A3TL A 201      -8.926 -13.579  12.593 +0.09 +0.02    +0.163 HD
DOCKED: BRANCH   4   7
DOCKED: ATOM      7  C10A3TL A 201      -9.614 -15.050  10.679 -0.26 -0.04    +0.180 C 
DOCKED: BRANCH   7   8
DOCKED: ATOM      8  N2 A3TL A 201     -10.423 -14.166   9.849 -0.11 +0.04    -0.346 N 
DOCKED: ATOM      9  C19A3TL A 201     -10.822 -12.964  10.231 -0.05 -0.02    +0.240 C 
DOCKED: ATOM     10  O4 A3TL A 201     -10.558 -12.503  11.324 -0.18 -0.02    -0.271 OA
DOCKED: ATOM     11  H2 A3TL A 201     -10.696 -14.493   8.923 +0.10 -0.01    +0.163 HD
DOCKED: BRANCH   9  12
DOCKED: ATOM     12  C18A3TL A 201     -11.652 -12.197   9.241 -0.00 -0.00    +0.174 C 
DOCKED: ATOM     13  C20A3TL A 201     -13.114 -12.611   9.365 -0.29 +0.01    +0.042 C 
DOCKED: BRANCH  12  14
DOCKED: ATOM     14  N4 A3TL A 201     -11.176 -12.400   7.884 -0.08 +0.03    -0.324 N 
DOCKED: ATOM     15  C31A3TL A 201     -11.543 -13.449   7.141 -0.19 -0.09    +0.361 C 
DOCKED: ATOM     16  O8 A3TL A 201     -12.348 -14.292   7.512 -0.74 +0.08    -0.238 OA
DOCKED: ATOM     17  H4 A3TL A 201     -10.537 -11.715   7.481 -0.39 -0.01    +0.165 HD
DOCKED: BRANCH  15  18
DOCKED: ATOM     18  O9 A3TL A 201     -10.926 -13.599   5.830 -0.33 +0.13    -0.299 OA
DOCKED: BRANCH  18  19
DOCKED: ATOM     19  CA A3TL A 201     -10.670 -12.466   5.004 -0.24 -0.06    +0.219 C 
DOCKED: BRANCH  19  20
DOCKED: ATOM     20  C  A3TL A 201     -11.932 -11.725   4.616 -0.27 +0.00    -0.034 A 
DOCKED: ATOM     21  C13A3TL A 201     -12.722 -11.150   5.623 -0.19 +0.00    +0.009 A 
DOCKED: ATOM     22  C14A3TL A 201     -13.876 -10.446   5.296 -0.12 +0.00    +0.001 A 
DOCKED: ATOM     23  C15A3TL A 201     -14.254 -10.319   3.956 -0.08 +0.00    +0.000 A 
DOCKED: ATOM     24  C16A3TL A 201     -13.467 -10.890   2.951 -0.12 +0.00    +0.001 A 
DOCKED: ATOM     25  C17A3TL A 201     -12.300 -11.592   3.284 -0.25 +0.00    +0.009 A 
DOCKED: ENDBRANCH  19  20
DOCKED: ENDBRANCH  18  19
DOCKED: ENDBRANCH  15  18
DOCKED: ENDBRANCH  12  14
DOCKED: ENDBRANCH   9  12
DOCKED: ENDBRANCH   7   8
DOCKED: BRANCH   7  26
DOCKED: ATOM     26  C12A3TL A 201      -8.148 -14.621  10.696 -0.41 -0.00    +0.009 C 
DOCKED: ATOM     27  CG1A3TL A 201      -7.146 -15.773  10.810 -0.44 -0.00    +0.012 C 
DOCKED: ATOM     28  CG2A3TL A 201      -7.800 -13.755   9.489 -0.50 +0.00    +0.012 C 
DOCKED: ENDBRANCH   7  26
DOCKED: ENDBRANCH   4   7
DOCKED: ENDBRANCH   2   3
DOCKED: BRANCH   2  29
DOCKED: ATOM     29  C3 A3TL A 201     -11.602 -14.221  14.364 -0.33 -0.02    +0.066 C 
DOCKED: BRANCH  29  30
DOCKED: ATOM     30  C4 A3TL A 201     -12.156 -12.980  13.718 -0.32 -0.00    -0.056 A 
DOCKED: ATOM     31  C5 A3TL A 201     -13.302 -13.067  12.924 -0.35 +0.00    +0.007 A 
DOCKED: ATOM     32  C6 A3TL A 201     -13.799 -11.910  12.327 -0.03 +0.00    +0.001 A 
DOCKED: ATOM     33  C7 A3TL A 201     -13.154 -10.687  12.521 -0.36 +0.00    +0.000 A 
DOCKED: ATOM     34  C8 A3TL A 201     -12.020 -10.608  13.322 -0.48 +0.00    +0.001 A 
DOCKED: ATOM     35  C9 A3TL A 201     -11.521 -11.757  13.928 -0.46 +0.00    +0.007 A 
DOCKED: ENDBRANCH  29  30
DOCKED: ENDBRANCH   2  29
DOCKED: ENDBRANCH   1   2
DOCKED: BRANCH   1  36
DOCKED: ATOM     36  O1 A3TL A 201     -10.464 -16.296  15.187 +0.79 +0.70    -0.391 OA
DOCKED: ATOM     37  H1 A3TL A 201     -10.951 -16.085  15.977 -0.37 -0.43    +0.210 HD
DOCKED: ENDBRANCH   1  36
DOCKED: BRANCH   1  38
DOCKED: ATOM     38  C52A3TL A 201      -8.295 -15.996  14.368 -0.23 -0.07    +0.171 C 
DOCKED: BRANCH  38  39
DOCKED: ATOM     39  C51A3TL A 201      -7.607 -17.097  15.153 -0.09 -0.06    +0.120 C 
DOCKED: BRANCH  39  40
DOCKED: ATOM     40  C53A3TL A 201      -8.138 -16.902  16.570 +0.45 -0.03    +0.066 C 
DOCKED: BRANCH  40  41
DOCKED: ATOM     41  C54A3TL A 201      -7.793 -15.570  17.181 -0.29 +0.01    -0.056 A 
DOCKED: ATOM     42  C55A3TL A 201      -7.725 -15.418  18.557 -0.37 -0.00    +0.007 A 
DOCKED: ATOM     43  C56A3TL A 201      -7.403 -14.186  19.114 -0.45 +0.00    +0.001 A 
DOCKED: ATOM     44  C57A3TL A 201      -7.153 -13.119  18.268 +0.14 +0.00    +0.000 A 
DOCKED: ATOM     45  C58A3TL A 201      -7.208 -13.281  16.885 +0.15 +0.00    +0.001 A 
DOCKED: ATOM     46  C59A3TL A 201      -7.527 -14.511  16.340 -0.35 +0.00    +0.007 A 
DOCKED: ENDBRANCH  40  41
DOCKED: ENDBRANCH  39  40
DOCKED: BRANCH  39  47
DOCKED: ATOM     47  N51A3TL A 201      -6.171 -16.862  15.057 -0.07 +0.04    -0.352 N 
DOCKED: ATOM     48  C61A3TL A 201      -5.573 -15.698  14.806 -0.19 +0.03    +0.241 C 
DOCKED: ATOM     49  O52A3TL A 201      -6.157 -14.670  14.490 -0.12 -0.08    -0.271 OA
DOCKED: ATOM     50  H51A3TL A 201      -5.564 -17.669  15.196 +0.09 -0.00    +0.163 HD
DOCKED: BRANCH  48  51
DOCKED: ATOM     51  C60A3TL A 201      -4.076 -15.750  14.906 -0.27 +0.04    +0.180 C 
DOCKED: BRANCH  51  52
DOCKED: ATOM     52  N52A3TL A 201      -3.691 -15.448  16.284 -0.05 -0.04    -0.346 N 
DOCKED: ATOM     53  C69A3TL A 201      -2.435 -15.334  16.726 -0.20 +0.06    +0.240 C 
DOCKED: ATOM     54  O54A3TL A 201      -1.460 -15.699  16.092 -0.21 -0.09    -0.271 OA
DOCKED: ATOM     55  H52A3TL A 201      -4.441 -15.315  16.962 -0.34 -0.03    +0.163 HD
DOCKED: BRANCH  53  56
DOCKED: ATOM     56  C68A3TL A 201      -2.272 -14.790  18.120 +0.20 +0.05    +0.174 C 
DOCKED: ATOM     57  C70A3TL A 201      -0.957 -14.047  18.350 -0.27 +0.02    +0.042 C 
DOCKED: BRANCH  56  58
DOCKED: ATOM     58  N54A3TL A 201      -2.374 -15.872  19.080 -0.10 -0.10    -0.324 N 
DOCKED: ATOM     59  C81A3TL A 201      -3.510 -16.537  19.258 -0.11 +0.06    +0.361 C 
DOCKED: ATOM     60  O58A3TL A 201      -4.552 -16.258  18.685 -0.17 +0.01    -0.238 OA
DOCKED: ATOM     61  H54A3TL A 201      -1.555 -16.127  19.632 +0.06 +0.07    +0.165 HD
DOCKED: BRANCH  59  62
DOCKED: ATOM     62  O59A3TL A 201      -3.479 -17.631  20.213 -0.11 +0.02    -0.299 OA
DOCKED: BRANCH  62  63
DOCKED: ATOM     63  CA5A3TL A 201      -2.599 -17.588  21.336 +0.12 +0.05    +0.219 C 
DOCKED: BRANCH  63  64
DOCKED: ATOM     64  C50A3TL A 201      -2.975 -16.478  22.295 -0.17 -0.01    -0.034 A 
DOCKED: ATOM     65  C63A3TL A 201      -3.591 -16.806  23.503 -0.21 +0.00    +0.009 A 
DOCKED: ATOM     66  C64A3TL A 201      -3.934 -15.803  24.412 -0.11 +0.00    +0.001 A 
DOCKED: ATOM     67  C65A3TL A 201      -3.662 -14.470  24.116 -0.32 +0.00    +0.000 A 
DOCKED: ATOM     68  C66A3TL A 201      -3.039 -14.145  22.910 -0.37 +0.00    +0.001 A 
DOCKED: ATOM     69  C67A3TL A 201      -2.687 -15.145  21.997 -0.28 +0.00    +0.009 A 
DOCKED: ENDBRANCH  63  64
DOCKED: ENDBRANCH  62  63
DOCKED: ENDBRANCH  59  62
DOCKED: ENDBRANCH  56  58
DOCKED: ENDBRANCH  53  56
DOCKED: ENDBRANCH  51  52
DOCKED: BRANCH  51  70
DOCKED: ATOM     70  C62A3TL A 201      -3.502 -17.077  14.375 -0.44 +0.00    +0.009 C 
DOCKED: ATOM     71  CG5A3TL A 201      -3.502 -18.133  15.471 -0.20 +0.00    +0.012 C 
DOCKED: ATOM     72  CG6A3TL A 201      -4.263 -17.621  13.156 -0.38 +0.00    +0.012 C 
DOCKED: ENDBRANCH  51  70
DOCKED: ENDBRANCH  48  51
DOCKED: ENDBRANCH  39  47
DOCKED: ENDBRANCH  38  39
DOCKED: BRANCH  38  73
DOCKED: ATOM     73  O51A3TL A 201      -8.814 -16.585  13.179 -0.13 +0.37    -0.391 OA
DOCKED: ATOM     74  H51A3TL A 201      -9.754 -16.653  13.294 +0.12 -0.27    +0.210 HD
DOCKED: ENDBRANCH  38  73
DOCKED: ENDBRANCH   1  38
DOCKED: TORSDOF 27
DOCKED: TER
DOCKED: ENDMDL
________________________________________________________________________________


	BEGINNING GENETIC ALGORITHM DOCKING 5 of 10
Run: 5 Seed: 969480853 925628988 [ Run 5 of 10 GA/GALS ]
Beginning LAMARCKIAN GENETIC ALGORITHM (LGA), with a maximum of 2500000 energy evaluations.

Final-Value: 1.010


	FINAL GENETIC ALGORITHM DOCKED STATE
	_______________________________________________


Detailed state:  trans -6.529 -14.383 12.723 quatxyzw 0.377246 0.743623 -0.425091 -0.352147 center -8.198 -14.354 13.542 ntor 27 39.9000 145.8335 -43.2066 8.3965 -123.4611 -95.9188 -179.7248 180.0000 -19.2953 151.2443 -4.4469 -180.0000 163.3996 -179.9911 -31.8089 -179.9902 14.9317 177.4016 -166.7617 -119.4785 -106.3757 -119.8497 -132.2308 -179.9230 96.4624 135.9930 20.0500
State:	 -6.529 -14.383  12.723   0.403  0.795 -0.454 -138.763     39.90  145.83  -43.21    8.40 -123.46  -95.92 -179.72  180.00  -19.30  151.24   -4.45 -180.00  163.40 -179.99  -31.81 -179.99   14.93  177.40 -166.76 -119.48 -106.38 -119.85 -132.23 -179.92   96.46  135.99   20.05

DOCKED: MODEL        5
DOCKED: USER    Run = 5
DOCKED: USER    DPF = dock.dpf
DOCKED: USER  
DOCKED: USER    Estimated Free Energy of Binding    =   +2.73 kcal/mol  [=(1)+(2)+(3)-(4)]
DOCKED: USER    
DOCKED: USER    (1) Final Intermolecular Energy     =   -5.32 kcal/mol
DOCKED: USER        vdW + Hbond + desolv Energy     =   -4.98 kcal/mol
DOCKED: USER        Electrostatic Energy            =   -0.34 kcal/mol
DOCKED: USER    (2) Final Total Internal Energy     =   +6.33 kcal/mol
DOCKED: USER    (3) Torsional Free Energy           =   +8.05 kcal/mol
DOCKED: USER    (4) Unbound System's Energy  [=(2)] =   +6.33 kcal/mol
DOCKED: USER    
DOCKED: USER    
DOCKED: USER    NEWDPF move lig2p3c.pdbqt
DOCKED: USER    NEWDPF about -8.198000 -14.354000 13.542000
DOCKED: USER    NEWDPF tran0 -6.528998 -14.382969 12.722635
DOCKED: USER    NEWDPF quaternion0 0.377246 0.743623 -0.425091 -0.352147
DOCKED: USER    NEWDPF axisangle0 0.403065 0.794516 -0.454184 -138.762562
DOCKED: USER    NEWDPF quat0 0.403065 0.794516 -0.454184 -138.762562
DOCKED: USER    NEWDPF dihe0 39.90 145.83 -43.21 8.40 -123.46 -95.92 -179.72 180.00 -19.30 151.24 -4.45 -180.00 163.40 -179.99 -31.81 -179.99 14.93 177.40 -166.76 -119.48 -106.38 -119.85 -132.23 -179.92 96.46 135.99 20.05 
DOCKED: USER  keepresnum = 1 
DOCKED: USER  
DOCKED: REMARK  27 active torsions:
DOCKED: REMARK  status: ('A' for Active; 'I' for Inactive)
DOCKED: REMARK    1  A    between atoms: CA@A_1  and  C@A_3 
DOCKED: REMARK    2  A    between atoms: CA@A_1  and  O9@A_28 
DOCKED: REMARK    3  A    between atoms: CA5@A_2  and  C50@A_41 
DOCKED: REMARK    4  A    between atoms: CA5@A_2  and  O59@A_62 
DOCKED: REMARK    5  A    between atoms: C1@A_8  and  N1@A_9 
DOCKED: REMARK    6  A    between atoms: C1@A_8  and  C3@A_17 
DOCKED: REMARK    7  A    between atoms: C1@A_8  and  C2@A_13 
DOCKED: REMARK       I    between atoms: N1@A_9  and  C11@A_30 
DOCKED: REMARK    8  A    between atoms: O1@A_11  and  C2@A_13 
DOCKED: REMARK    9  A    between atoms: C2@A_13  and  C52@A_47 
DOCKED: REMARK   10  A    between atoms: N2@A_14  and  C10@A_29 
DOCKED: REMARK       I    between atoms: N2@A_14  and  C19@A_38 
DOCKED: REMARK   11  A    between atoms: C3@A_17  and  C4@A_18 
DOCKED: REMARK   12  A    between atoms: N4@A_19  and  C18@A_37 
DOCKED: REMARK       I    between atoms: N4@A_19  and  C31@A_40 
DOCKED: REMARK   13  A    between atoms: O9@A_28  and  C31@A_40 
DOCKED: REMARK   14  A    between atoms: C10@A_29  and  C11@A_30 
DOCKED: REMARK   15  A    between atoms: C10@A_29  and  C12@A_31 
DOCKED: REMARK   16  A    between atoms: C18@A_37  and  C19@A_38 
DOCKED: REMARK   17  A    between atoms: C51@A_42  and  C52@A_47 
DOCKED: REMARK   18  A    between atoms: C51@A_42  and  C53@A_51 
DOCKED: REMARK   19  A    between atoms: C51@A_42  and  N51@A_43 
DOCKED: REMARK       I    between atoms: N51@A_43  and  C61@A_64 
DOCKED: REMARK   20  A    between atoms: O51@A_45  and  C52@A_47 
DOCKED: REMARK   21  A    between atoms: N52@A_48  and  C60@A_63 
DOCKED: REMARK       I    between atoms: N52@A_48  and  C69@A_72 
DOCKED: REMARK   22  A    between atoms: C53@A_51  and  C54@A_52 
DOCKED: REMARK   23  A    between atoms: N54@A_53  and  C68@A_71 
DOCKED: REMARK       I    between atoms: N54@A_53  and  C81@A_74 
DOCKED: REMARK   24  A    between atoms: O59@A_62  and  C81@A_74 
DOCKED: REMARK   25  A    between atoms: C60@A_63  and  C61@A_64 
DOCKED: REMARK   26  A    between atoms: C60@A_63  and  C62@A_65 
DOCKED: REMARK   27  A    between atoms: C68@A_71  and  C69@A_72 
DOCKED: USER                              x       y       z     vdW  Elec       q    Type
DOCKED: USER                           _______ _______ _______ _____ _____    ______ ____
DOCKED: ROOT
DOCKED: ATOM      1  C2 A3TL A 201      -7.583 -15.792  14.867 -0.22 -0.04    +0.171 C 
DOCKED: ENDROOT
DOCKED: BRANCH   1   2
DOCKED: ATOM      2  C1 A3TL A 201      -6.385 -14.906  15.159 -0.02 +0.02    +0.120 C 
DOCKED: BRANCH   2   3
DOCKED: ATOM      3  N1 A3TL A 201      -5.771 -15.288  16.410 +0.09 +0.02    -0.352 N 
DOCKED: ATOM      4  C11A3TL A 201      -4.557 -15.817  16.460 +0.09 +0.01    +0.241 C 
DOCKED: ATOM      5  O2 A3TL A 201      -3.851 -15.968  15.486 -0.22 -0.06    -0.271 OA
DOCKED: ATOM      6  H1 A3TL A 201      -6.286 -15.146  17.279 -0.32 -0.03    +0.163 HD
DOCKED: BRANCH   4   7
DOCKED: ATOM      7  C10A3TL A 201      -4.109 -16.279  17.808 -0.03 +0.01    +0.180 C 
DOCKED: BRANCH   7   8
DOCKED: ATOM      8  N2 A3TL A 201      -5.208 -15.998  18.723 +0.03 +0.04    -0.346 N 
DOCKED: ATOM      9  C19A3TL A 201      -6.454 -16.388  18.513 -0.24 -0.02    +0.240 C 
DOCKED: ATOM     10  O4 A3TL A 201      -6.790 -17.002  17.520 -0.22 +0.05    -0.271 OA
DOCKED: ATOM     11  H2 A3TL A 201      -5.004 -15.473  19.573 -0.22 -0.02    +0.163 HD
DOCKED: BRANCH   9  12
DOCKED: ATOM     12  C18A3TL A 201      -7.454 -16.005  19.568 -0.39 -0.00    +0.174 C 
DOCKED: ATOM     13  C20A3TL A 201      -7.403 -17.009  20.714 -0.41 -0.00    +0.042 C 
DOCKED: BRANCH  12  14
DOCKED: ATOM     14  N4 A3TL A 201      -8.796 -15.923  19.019 -0.19 +0.00    -0.324 N 
DOCKED: ATOM     15  C31A3TL A 201      -9.606 -14.885  19.248 -0.28 +0.00    +0.361 C 
DOCKED: ATOM     16  O8 A3TL A 201      -9.273 -13.895  19.884 -0.35 -0.03    -0.238 OA
DOCKED: ATOM     17  H4 A3TL A 201      -9.134 -16.688  18.435 +0.12 -0.01    +0.165 HD
DOCKED: BRANCH  15  18
DOCKED: ATOM     18  O9 A3TL A 201     -10.964 -14.958  18.727 -0.34 +0.04    -0.299 OA
DOCKED: BRANCH  18  19
DOCKED: ATOM     19  CA A3TL A 201     -11.246 -15.629  17.500 +0.50 -0.15    +0.219 C 
DOCKED: BRANCH  19  20
DOCKED: ATOM     20  C  A3TL A 201     -11.280 -14.692  16.312 -0.14 +0.02    -0.034 A 
DOCKED: ATOM     21  C13A3TL A 201     -10.532 -13.505  16.357 -0.10 -0.00    +0.009 A 
DOCKED: ATOM     22  C14A3TL A 201     -10.528 -12.634  15.273 -0.13 +0.00    +0.001 A 
DOCKED: ATOM     23  C15A3TL A 201     -11.280 -12.940  14.136 -0.38 +0.00    +0.000 A 
DOCKED: ATOM     24  C16A3TL A 201     -12.026 -14.123  14.088 -0.29 -0.00    +0.001 A 
DOCKED: ATOM     25  C17A3TL A 201     -12.021 -15.002  15.180 +1.78 -0.01    +0.009 A 
DOCKED: ENDBRANCH  19  20
DOCKED: ENDBRANCH  18  19
DOCKED: ENDBRANCH  15  18
DOCKED: ENDBRANCH  12  14
DOCKED: ENDBRANCH   9  12
DOCKED: ENDBRANCH   7   8
DOCKED: BRANCH   7  26
DOCKED: ATOM     26  C12A3TL A 201      -3.729 -17.759  17.821 -0.30 +0.00    +0.009 C 
DOCKED: ATOM     27  CG1A3TL A 201      -3.789 -18.445  16.454 -0.34 +0.01    +0.012 C 
DOCKED: ATOM     28  CG2A3TL A 201      -2.358 -17.983  18.450 -0.23 +0.01    +0.012 C 
DOCKED: ENDBRANCH   7  26
DOCKED: ENDBRANCH   4   7
DOCKED: ENDBRANCH   2   3
DOCKED: BRANCH   2  29
DOCKED: ATOM     29  C3 A3TL A 201      -5.349 -15.014  14.043 +0.03 +0.02    +0.066 C 
DOCKED: BRANCH  29  30
DOCKED: ATOM     30  C4 A3TL A 201      -5.061 -16.472  13.803 -0.33 -0.00    -0.056 A 
DOCKED: ATOM     31  C5 A3TL A 201      -5.834 -17.444  14.443 -0.31 -0.00    +0.007 A 
DOCKED: ATOM     32  C6 A3TL A 201      -5.550 -18.789  14.216 -0.24 -0.00    +0.001 A 
DOCKED: ATOM     33  C7 A3TL A 201      -4.506 -19.152  13.364 +1.82 +0.00    +0.000 A 
DOCKED: ATOM     34  C8 A3TL A 201      -3.749 -18.177  12.722 +0.75 +0.00    +0.001 A 
DOCKED: ATOM     35  C9 A3TL A 201      -4.029 -16.832  12.938 -0.51 +0.00    +0.007 A 
DOCKED: ENDBRANCH  29  30
DOCKED: ENDBRANCH   2  29
DOCKED: ENDBRANCH   1   2
DOCKED: BRANCH   1  36
DOCKED: ATOM     36  O1 A3TL A 201      -8.196 -16.054  16.111 -0.12 +0.13    -0.391 OA
DOCKED: ATOM     37  H1 A3TL A 201      -8.464 -16.966  16.091 -0.04 -0.14    +0.210 HD
DOCKED: ENDBRANCH   1  36
DOCKED: BRANCH   1  38
DOCKED: ATOM     38  C52A3TL A 201      -8.656 -15.155  14.001 -0.20 -0.04    +0.171 C 
DOCKED: BRANCH  38  39
DOCKED: ATOM     39  C51A3TL A 201      -8.578 -15.461  12.518 -0.25 -0.04    +0.120 C 
DOCKED: BRANCH  39  40
DOCKED: ATOM     40  C53A3TL A 201      -7.107 -15.221  12.188 -0.37 -0.00    +0.066 C 
DOCKED: BRANCH  40  41
DOCKED: ATOM     41  C54A3TL A 201      -6.760 -15.416  10.736 -0.12 -0.00    -0.056 A 
DOCKED: ATOM     42  C55A3TL A 201      -6.024 -16.517  10.325 +0.55 -0.00    +0.007 A 
DOCKED: ATOM     43  C56A3TL A 201      -5.710 -16.691   8.983 +1.12 +0.00    +0.001 A 
DOCKED: ATOM     44  C57A3TL A 201      -6.146 -15.748   8.070 +0.07 +0.00    +0.000 A 
DOCKED: ATOM     45  C58A3TL A 201      -6.899 -14.651   8.486 -0.28 +0.00    +0.001 A 
DOCKED: ATOM     46  C59A3TL A 201      -7.209 -14.487   9.823 -0.25 +0.00    +0.007 A 
DOCKED: ENDBRANCH  40  41
DOCKED: ENDBRANCH  39  40
DOCKED: BRANCH  39  47
DOCKED: ATOM     47  N51A3TL A 201      -9.463 -14.524  11.837 -0.07 +0.06    -0.352 N 
DOCKED: ATOM     48  C61A3TL A 201      -9.406 -13.194  11.896 -0.03 +0.03    +0.241 C 
DOCKED: ATOM     49  O52A3TL A 201      -8.670 -12.562  12.642 +0.37 -0.14    -0.271 OA
DOCKED: ATOM     50  H51A3TL A 201     -10.199 -14.926  11.258 +0.09 -0.05    +0.163 HD
DOCKED: BRANCH  48  51
DOCKED: ATOM     51  C60A3TL A 201     -10.371 -12.503  10.976 +0.35 +0.00    +0.180 C 
DOCKED: BRANCH  51  52
DOCKED: ATOM     52  N52A3TL A 201     -10.529 -13.317   9.771 -0.08 +0.04    -0.346 N 
DOCKED: ATOM     53  C69A3TL A 201     -11.615 -14.028   9.459 -0.22 -0.02    +0.240 C 
DOCKED: ATOM     54  O54A3TL A 201     -12.511 -14.276  10.248 -0.04 +0.05    -0.271 OA
DOCKED: ATOM     55  H52A3TL A 201      -9.746 -13.344   9.117 -0.14 -0.02    +0.163 HD
DOCKED: BRANCH  53  56
DOCKED: ATOM     56  C68A3TL A 201     -11.654 -14.600   8.066 -0.26 -0.01    +0.174 C 
DOCKED: ATOM     57  C70A3TL A 201     -10.530 -15.590   7.767 -0.13 +0.01    +0.042 C 
DOCKED: BRANCH  56  58
DOCKED: ATOM     58  N54A3TL A 201     -11.604 -13.524   7.096 -0.19 +0.08    -0.324 N 
DOCKED: ATOM     59  C81A3TL A 201     -10.456 -12.953   6.750 -0.25 -0.03    +0.361 C 
DOCKED: ATOM     60  O58A3TL A 201      -9.381 -13.239   7.255 -0.35 -0.00    -0.238 OA
DOCKED: ATOM     61  H54A3TL A 201     -12.471 -13.198   6.669 -0.06 -0.13    +0.165 HD
DOCKED: BRANCH  59  62
DOCKED: ATOM     62  O59A3TL A 201     -10.525 -11.917   5.734 -0.38 -0.03    -0.299 OA
DOCKED: BRANCH  62  63
DOCKED: ATOM     63  CA5A3TL A 201     -11.752 -11.650   5.055 -0.24 -0.01    +0.219 C 
DOCKED: BRANCH  63  64
DOCKED: ATOM     64  C50A3TL A 201     -12.456 -10.441   5.634 -0.20 -0.01    -0.034 A 
DOCKED: ATOM     65  C63A3TL A 201     -12.219 -10.091   6.965 -0.25 +0.00    +0.009 A 
DOCKED: ATOM     66  C64A3TL A 201     -12.843  -8.972   7.518 -0.21 +0.00    +0.001 A 
DOCKED: ATOM     67  C65A3TL A 201     -13.705  -8.198   6.745 -0.11 +0.00    +0.000 A 
DOCKED: ATOM     68  C66A3TL A 201     -13.934  -8.546   5.412 -0.07 +0.00    +0.001 A 
DOCKED: ATOM     69  C67A3TL A 201     -13.308  -9.662   4.849 -0.10 +0.00    +0.009 A 
DOCKED: ENDBRANCH  63  64
DOCKED: ENDBRANCH  62  63
DOCKED: ENDBRANCH  59  62
DOCKED: ENDBRANCH  56  58
DOCKED: ENDBRANCH  53  56
DOCKED: ENDBRANCH  51  52
DOCKED: BRANCH  51  70
DOCKED: ATOM     70  C62A3TL A 201     -11.699 -12.160  11.675 -0.33 +0.00    +0.009 C 
DOCKED: ATOM     71  CG5A3TL A 201     -11.537 -10.922  12.546 -0.34 +0.00    +0.012 C 
DOCKED: ATOM     72  CG6A3TL A 201     -12.858 -11.932  10.693 -0.28 +0.00    +0.012 C 
DOCKED: ENDBRANCH  51  70
DOCKED: ENDBRANCH  48  51
DOCKED: ENDBRANCH  39  47
DOCKED: ENDBRANCH  38  39
DOCKED: BRANCH  38  73
DOCKED: ATOM     73  O51A3TL A 201      -9.909 -15.648  14.470 -0.11 +0.32    -0.391 OA
DOCKED: ATOM     74  H51A3TL A 201      -9.763 -16.541  14.756 +0.02 -0.27    +0.210 HD
DOCKED: ENDBRANCH  38  73
DOCKED: ENDBRANCH   1  38
DOCKED: TORSDOF 27
DOCKED: TER
DOCKED: ENDMDL
________________________________________________________________________________


	BEGINNING GENETIC ALGORITHM DOCKING 6 of 10
Run: 6 Seed: 1307902328 1533462309 [ Run 6 of 10 GA/GALS ]
Beginning LAMARCKIAN GENETIC ALGORITHM (LGA), with a maximum of 2500000 energy evaluations.

Final-Value: 11.528


	FINAL GENETIC ALGORITHM DOCKED STATE
	_______________________________________________


Detailed state:  trans -6.760 -15.849 13.654 quatxyzw 0.168569 -0.913686 0.274233 0.248110 center -8.198 -14.354 13.542 ntor 27 47.4203 -178.1732 -83.7776 5.2662 -96.4976 -167.4219 -179.5372 179.8767 115.6488 176.9210 13.5461 -8.3432 -127.8910 -128.9484 -66.2679 139.0137 171.5674 170.4363 178.9649 32.2681 7.5108 55.8929 144.6211 -23.4994 80.4956 -144.3317 -32.1396
State:	 -6.760 -15.849  13.654   0.174 -0.943  0.283 151.269     47.42 -178.17  -83.78    5.27  -96.50 -167.42 -179.54  179.88  115.65  176.92   13.55   -8.34 -127.89 -128.95  -66.27  139.01  171.57  170.44  178.96   32.27    7.51   55.89  144.62  -23.50   80.50 -144.33  -32.14

DOCKED: MODEL        6
DOCKED: USER    Run = 6
DOCKED: USER    DPF = dock.dpf
DOCKED: USER  
DOCKED: USER    Estimated Free Energy of Binding    =   +9.17 kcal/mol  [=(1)+(2)+(3)-(4)]
DOCKED: USER    
DOCKED: USER    (1) Final Intermolecular Energy     =   +1.11 kcal/mol
DOCKED: USER        vdW + Hbond + desolv Energy     =   +0.98 kcal/mol
DOCKED: USER        Electrostatic Energy            =   +0.13 kcal/mol
DOCKED: USER    (2) Final Total Internal Energy     =  +10.41 kcal/mol
DOCKED: USER    (3) Torsional Free Energy           =   +8.05 kcal/mol
DOCKED: USER    (4) Unbound System's Energy  [=(2)] =  +10.41 kcal/mol
DOCKED: USER    
DOCKED: USER    
DOCKED: USER    NEWDPF move lig2p3c.pdbqt
DOCKED: USER    NEWDPF about -8.198000 -14.354000 13.542000
DOCKED: USER    NEWDPF tran0 -6.760281 -15.849326 13.654149
DOCKED: USER    NEWDPF quaternion0 0.168569 -0.913686 0.274233 0.248110
DOCKED: USER    NEWDPF axisangle0 0.174010 -0.943178 0.283084 151.268598
DOCKED: USER    NEWDPF quat0 0.174010 -0.943178 0.283084 151.268598
DOCKED: USER    NEWDPF dihe0 47.42 -178.17 -83.78 5.27 -96.50 -167.42 -179.54 179.88 115.65 176.92 13.55 -8.34 -127.89 -128.95 -66.27 139.01 171.57 170.44 178.96 32.27 7.51 55.89 144.62 -23.50 80.50 -144.33 -32.14 
DOCKED: USER  keepresnum = 1 
DOCKED: USER  
DOCKED: REMARK  27 active torsions:
DOCKED: REMARK  status: ('A' for Active; 'I' for Inactive)
DOCKED: REMARK    1  A    between atoms: CA@A_1  and  C@A_3 
DOCKED: REMARK    2  A    between atoms: CA@A_1  and  O9@A_28 
DOCKED: REMARK    3  A    between atoms: CA5@A_2  and  C50@A_41 
DOCKED: REMARK    4  A    between atoms: CA5@A_2  and  O59@A_62 
DOCKED: REMARK    5  A    between atoms: C1@A_8  and  N1@A_9 
DOCKED: REMARK    6  A    between atoms: C1@A_8  and  C3@A_17 
DOCKED: REMARK    7  A    between atoms: C1@A_8  and  C2@A_13 
DOCKED: REMARK       I    between atoms: N1@A_9  and  C11@A_30 
DOCKED: REMARK    8  A    between atoms: O1@A_11  and  C2@A_13 
DOCKED: REMARK    9  A    between atoms: C2@A_13  and  C52@A_47 
DOCKED: REMARK   10  A    between atoms: N2@A_14  and  C10@A_29 
DOCKED: REMARK       I    between atoms: N2@A_14  and  C19@A_38 
DOCKED: REMARK   11  A    between atoms: C3@A_17  and  C4@A_18 
DOCKED: REMARK   12  A    between atoms: N4@A_19  and  C18@A_37 
DOCKED: REMARK       I    between atoms: N4@A_19  and  C31@A_40 
DOCKED: REMARK   13  A    between atoms: O9@A_28  and  C31@A_40 
DOCKED: REMARK   14  A    between atoms: C10@A_29  and  C11@A_30 
DOCKED: REMARK   15  A    between atoms: C10@A_29  and  C12@A_31 
DOCKED: REMARK   16  A    between atoms: C18@A_37  and  C19@A_38 
DOCKED: REMARK   17  A    between atoms: C51@A_42  and  C52@A_47 
DOCKED: REMARK   18  A    between atoms: C51@A_42  and  C53@A_51 
DOCKED: REMARK   19  A    between atoms: C51@A_42  and  N51@A_43 
DOCKED: REMARK       I    between atoms: N51@A_43  and  C61@A_64 
DOCKED: REMARK   20  A    between atoms: O51@A_45  and  C52@A_47 
DOCKED: REMARK   21  A    between atoms: N52@A_48  and  C60@A_63 
DOCKED: REMARK       I    between atoms: N52@A_48  and  C69@A_72 
DOCKED: REMARK   22  A    between atoms: C53@A_51  and  C54@A_52 
DOCKED: REMARK   23  A    between atoms: N54@A_53  and  C68@A_71 
DOCKED: REMARK       I    between atoms: N54@A_53  and  C81@A_74 
DOCKED: REMARK   24  A    between atoms: O59@A_62  and  C81@A_74 
DOCKED: REMARK   25  A    between atoms: C60@A_63  and  C61@A_64 
DOCKED: REMARK   26  A    between atoms: C60@A_63  and  C62@A_65 
DOCKED: REMARK   27  A    between atoms: C68@A_71  and  C69@A_72 
DOCKED: USER                              x       y       z     vdW  Elec       q    Type
DOCKED: USER                           _______ _______ _______ _____ _____    ______ ____
DOCKED: ROOT
DOCKED: ATOM      1  C2 A3TL A 201      -4.884 -16.927  15.390 -0.23 +0.02    +0.171 C 
DOCKED: ENDROOT
DOCKED: BRANCH   1   2
DOCKED: ATOM      2  C1 A3TL A 201      -4.989 -15.412  15.357 +0.10 +0.02    +0.120 C 
DOCKED: BRANCH   2   3
DOCKED: ATOM      3  N1 A3TL A 201      -4.014 -14.822  16.246 +1.64 -0.02    -0.352 N 
DOCKED: ATOM      4  C11A3TL A 201      -2.852 -15.408  16.497 -0.15 +0.05    +0.241 C 
DOCKED: ATOM      5  O2 A3TL A 201      -2.494 -16.440  15.970 -0.20 -0.09    -0.271 OA
DOCKED: ATOM      6  H1 A3TL A 201      -4.225 -13.929  16.691 +2.28 -0.06    +0.163 HD
DOCKED: BRANCH   4   7
DOCKED: ATOM      7  C10A3TL A 201      -2.005 -14.744  17.532 -0.06 +0.05    +0.180 C 
DOCKED: BRANCH   7   8
DOCKED: ATOM      8  N2 A3TL A 201      -1.926 -15.671  18.654 -0.10 -0.12    -0.346 N 
DOCKED: ATOM      9  C19A3TL A 201      -1.836 -16.983  18.516 -0.11 +0.12    +0.240 C 
DOCKED: ATOM     10  O4 A3TL A 201      -1.830 -17.528  17.429 -0.11 -0.15    -0.271 OA
DOCKED: ATOM     11  H2 A3TL A 201      -1.940 -15.286  19.598 +0.06 +0.06    +0.163 HD
DOCKED: BRANCH   9  12
DOCKED: ATOM     12  C18A3TL A 201      -1.766 -17.780  19.788 +0.01 +0.13    +0.174 C 
DOCKED: ATOM     13  C20A3TL A 201      -3.139 -17.810  20.452 +0.74 +0.00    +0.042 C 
DOCKED: BRANCH  12  14
DOCKED: ATOM     14  N4 A3TL A 201      -0.771 -17.238  20.696 -0.03 -0.21    -0.324 N 
DOCKED: ATOM     15  C31A3TL A 201      -0.333 -17.908  21.767 -0.01 +0.28    +0.361 C 
DOCKED: ATOM     16  O8 A3TL A 201      -0.683 -19.047  22.042 -0.58 -0.29    -0.238 OA
DOCKED: ATOM     17  H4 A3TL A 201      -0.391 -16.310  20.510 +0.05 +0.08    +0.165 HD
DOCKED: BRANCH  15  18
DOCKED: ATOM     18  O9 A3TL A 201       0.593 -17.225  22.661 -0.00 -0.17    -0.299 OA
DOCKED: BRANCH  18  19
DOCKED: ATOM     19  CA A3TL A 201       0.481 -15.825  22.905 -0.02 +0.10    +0.219 C 
DOCKED: BRANCH  19  20
DOCKED: ATOM     20  C  A3TL A 201      -0.955 -15.364  23.039 -0.10 -0.02    -0.034 A 
DOCKED: ATOM     21  C13A3TL A 201      -1.793 -16.005  23.964 -0.09 +0.00    +0.009 A 
DOCKED: ATOM     22  C14A3TL A 201      -3.111 -15.591  24.123 -0.23 +0.00    +0.001 A 
DOCKED: ATOM     23  C15A3TL A 201      -3.604 -14.536  23.351 -0.38 +0.00    +0.000 A 
DOCKED: ATOM     24  C16A3TL A 201      -2.770 -13.895  22.429 -0.28 +0.00    +0.001 A 
DOCKED: ATOM     25  C17A3TL A 201      -1.439 -14.310  22.277 -0.27 +0.00    +0.009 A 
DOCKED: ENDBRANCH  19  20
DOCKED: ENDBRANCH  18  19
DOCKED: ENDBRANCH  15  18
DOCKED: ENDBRANCH  12  14
DOCKED: ENDBRANCH   9  12
DOCKED: ENDBRANCH   7   8
DOCKED: BRANCH   7  26
DOCKED: ATOM     26  C12A3TL A 201      -0.617 -14.380  17.004 -0.40 +0.00    +0.009 C 
DOCKED: ATOM     27  CG1A3TL A 201      -0.018 -15.397  16.029 +1.76 +0.00    +0.012 C 
DOCKED: ATOM     28  CG2A3TL A 201      -0.601 -12.991  16.374 -0.52 +0.00    +0.012 C 
DOCKED: ENDBRANCH   7  26
DOCKED: ENDBRANCH   4   7
DOCKED: ENDBRANCH   2   3
DOCKED: BRANCH   2  29
DOCKED: ATOM     29  C3 A3TL A 201      -4.757 -14.885  13.944 +0.54 +0.02    +0.066 C 
DOCKED: BRANCH  29  30
DOCKED: ATOM     30  C4 A3TL A 201      -3.913 -15.882  13.197 -0.48 -0.01    -0.056 A 
DOCKED: ATOM     31  C5 A3TL A 201      -2.611 -16.146  13.629 -0.35 +0.00    +0.007 A 
DOCKED: ATOM     32  C6 A3TL A 201      -1.839 -17.066  12.922 +1.26 +0.00    +0.001 A 
DOCKED: ATOM     33  C7 A3TL A 201      -2.365 -17.709  11.800 +3.53 -0.00    +0.000 A 
DOCKED: ATOM     34  C8 A3TL A 201      -3.666 -17.448  11.385 +0.93 +0.00    +0.001 A 
DOCKED: ATOM     35  C9 A3TL A 201      -4.446 -16.535  12.088 -0.38 +0.00    +0.007 A 
DOCKED: ENDBRANCH  29  30
DOCKED: ENDBRANCH   2  29
DOCKED: ENDBRANCH   1   2
DOCKED: BRANCH   1  36
DOCKED: ATOM     36  O1 A3TL A 201      -4.220 -17.254  16.591 -0.07 -0.08    -0.391 OA
DOCKED: ATOM     37  H1 A3TL A 201      -3.544 -17.881  16.363 +0.12 +0.08    +0.210 HD
DOCKED: ENDBRANCH   1  36
DOCKED: BRANCH   1  38
DOCKED: ATOM     38  C52A3TL A 201      -6.212 -17.661  15.435 -0.03 -0.04    +0.171 C 
DOCKED: BRANCH  38  39
DOCKED: ATOM     39  C51A3TL A 201      -7.291 -17.137  14.507 -0.27 -0.06    +0.120 C 
DOCKED: BRANCH  39  40
DOCKED: ATOM     40  C53A3TL A 201      -6.501 -16.618  13.309 -0.34 -0.01    +0.066 C 
DOCKED: BRANCH  40  41
DOCKED: ATOM     41  C54A3TL A 201      -7.251 -15.633  12.453 -0.30 +0.01    -0.056 A 
DOCKED: ATOM     42  C55A3TL A 201      -7.716 -15.995  11.198 -0.36 -0.00    +0.007 A 
DOCKED: ATOM     43  C56A3TL A 201      -8.410 -15.082  10.415 -0.36 -0.00    +0.001 A 
DOCKED: ATOM     44  C57A3TL A 201      -8.628 -13.809  10.913 -0.36 +0.00    +0.000 A 
DOCKED: ATOM     45  C58A3TL A 201      -8.173 -13.455  12.182 -0.34 +0.00    +0.001 A 
DOCKED: ATOM     46  C59A3TL A 201      -7.484 -14.371  12.955 -0.37 +0.00    +0.007 A 
DOCKED: ENDBRANCH  40  41
DOCKED: ENDBRANCH  39  40
DOCKED: BRANCH  39  47
DOCKED: ATOM     47  N51A3TL A 201      -7.991 -16.073  15.217 -0.07 +0.12    -0.352 N 
DOCKED: ATOM     48  C61A3TL A 201      -9.284 -15.768  15.114 -0.22 -0.15    +0.241 C 
DOCKED: ATOM     49  O52A3TL A 201     -10.052 -16.264  14.301 -0.24 +0.34    -0.271 OA
DOCKED: ATOM     50  H51A3TL A 201      -7.435 -15.506  15.857 +0.10 -0.02    +0.163 HD
DOCKED: BRANCH  48  51
DOCKED: ATOM     51  C60A3TL A 201      -9.737 -14.708  16.077 -0.29 -0.05    +0.180 C 
DOCKED: BRANCH  51  52
DOCKED: ATOM     52  N52A3TL A 201     -10.712 -13.854  15.401 -0.14 +0.07    -0.346 N 
DOCKED: ATOM     53  C69A3TL A 201     -10.452 -12.654  14.876 -0.25 +0.03    +0.240 C 
DOCKED: ATOM     54  O54A3TL A 201      -9.434 -12.023  15.103 +0.27 -0.11    -0.271 OA
DOCKED: ATOM     55  H52A3TL A 201     -11.668 -14.202  15.326 +0.09 -0.07    +0.163 HD
DOCKED: BRANCH  53  56
DOCKED: ATOM     56  C68A3TL A 201     -11.541 -12.053  14.026 -0.38 +0.03    +0.174 C 
DOCKED: ATOM     57  C70A3TL A 201     -12.894 -11.951  14.726 -0.52 +0.00    +0.042 C 
DOCKED: BRANCH  56  58
DOCKED: ATOM     58  N54A3TL A 201     -11.696 -12.832  12.813 -0.10 -0.02    -0.324 N 
DOCKED: ATOM     59  C81A3TL A 201     -11.638 -14.158  12.825 -0.13 -0.08    +0.361 C 
DOCKED: ATOM     60  O58A3TL A 201     -11.392 -14.813  13.828 -0.24 +0.14    -0.238 OA
DOCKED: ATOM     61  H54A3TL A 201     -11.855 -12.349  11.928 +0.10 +0.02    +0.165 HD
DOCKED: BRANCH  59  62
DOCKED: ATOM     62  O59A3TL A 201     -11.854 -14.832  11.557 +0.33 +0.14    -0.299 OA
DOCKED: BRANCH  62  63
DOCKED: ATOM     63  CA5A3TL A 201     -11.226 -14.354  10.368 -0.12 -0.04    +0.219 C 
DOCKED: BRANCH  63  64
DOCKED: ATOM     64  C50A3TL A 201     -12.072 -13.309   9.672 -0.25 +0.00    -0.034 A 
DOCKED: ATOM     65  C63A3TL A 201     -13.455 -13.323   9.859 -0.31 +0.00    +0.009 A 
DOCKED: ATOM     66  C64A3TL A 201     -14.257 -12.361   9.242 -0.29 +0.00    +0.001 A 
DOCKED: ATOM     67  C65A3TL A 201     -13.679 -11.383   8.437 -0.22 +0.00    +0.000 A 
DOCKED: ATOM     68  C66A3TL A 201     -12.294 -11.366   8.258 -0.24 +0.00    +0.001 A 
DOCKED: ATOM     69  C67A3TL A 201     -11.484 -12.323   8.878 +0.14 -0.00    +0.009 A 
DOCKED: ENDBRANCH  63  64
DOCKED: ENDBRANCH  62  63
DOCKED: ENDBRANCH  59  62
DOCKED: ENDBRANCH  56  58
DOCKED: ENDBRANCH  53  56
DOCKED: ENDBRANCH  51  52
DOCKED: BRANCH  51  70
DOCKED: ATOM     70  C62A3TL A 201     -10.243 -15.304  17.404 -0.48 -0.00    +0.009 C 
DOCKED: ATOM     71  CG5A3TL A 201      -9.072 -15.774  18.256 -0.41 -0.00    +0.012 C 
DOCKED: ATOM     72  CG6A3TL A 201     -11.095 -14.322  18.222 -0.31 -0.00    +0.012 C 
DOCKED: ENDBRANCH  51  70
DOCKED: ENDBRANCH  48  51
DOCKED: ENDBRANCH  39  47
DOCKED: ENDBRANCH  38  39
DOCKED: BRANCH  38  73
DOCKED: ATOM     73  O51A3TL A 201      -5.949 -19.010  15.059 -0.08 +0.05    -0.391 OA
DOCKED: ATOM     74  H51A3TL A 201      -5.013 -19.077  14.913 +0.13 +0.04    +0.210 HD
DOCKED: ENDBRANCH  38  73
DOCKED: ENDBRANCH   1  38
DOCKED: TORSDOF 27
DOCKED: TER
DOCKED: ENDMDL
________________________________________________________________________________


	BEGINNING GENETIC ALGORITHM DOCKING 7 of 10
Run: 7 Seed: 659964093 1207844907 [ Run 7 of 10 GA/GALS ]
Beginning LAMARCKIAN GENETIC ALGORITHM (LGA), with a maximum of 2500000 energy evaluations.

Final-Value: -1.741


	FINAL GENETIC ALGORITHM DOCKED STATE
	_______________________________________________


Detailed state:  trans -5.652 -13.987 15.135 quatxyzw 0.444397 0.285081 0.546416 0.650130 center -8.198 -14.354 13.542 ntor 27 80.6288 -52.3565 -83.6852 -119.9840 22.0712 81.5296 123.6256 137.2506 177.2299 127.5321 -62.4252 -96.9403 -81.3163 -7.4359 -156.4323 -167.2005 3.6624 -50.6305 96.8471 -92.4187 7.4662 104.1092 -40.8052 88.1553 -31.6630 145.5623 153.3728
State:	 -5.652 -13.987  15.135   0.585  0.375  0.719 98.897     80.63  -52.36  -83.69 -119.98   22.07   81.53  123.63  137.25  177.23  127.53  -62.43  -96.94  -81.32   -7.44 -156.43 -167.20    3.66  -50.63   96.85  -92.42    7.47  104.11  -40.81   88.16  -31.66  145.56  153.37

DOCKED: MODEL        7
DOCKED: USER    Run = 7
DOCKED: USER    DPF = dock.dpf
DOCKED: USER  
DOCKED: USER    Estimated Free Energy of Binding    =   +1.82 kcal/mol  [=(1)+(2)+(3)-(4)]
DOCKED: USER    
DOCKED: USER    (1) Final Intermolecular Energy     =   -6.23 kcal/mol
DOCKED: USER        vdW + Hbond + desolv Energy     =   -6.23 kcal/mol
DOCKED: USER        Electrostatic Energy            =   -0.00 kcal/mol
DOCKED: USER    (2) Final Total Internal Energy     =   +4.49 kcal/mol
DOCKED: USER    (3) Torsional Free Energy           =   +8.05 kcal/mol
DOCKED: USER    (4) Unbound System's Energy  [=(2)] =   +4.49 kcal/mol
DOCKED: USER    
DOCKED: USER    
DOCKED: USER    NEWDPF move lig2p3c.pdbqt
DOCKED: USER    NEWDPF about -8.198000 -14.354000 13.542000
DOCKED: USER    NEWDPF tran0 -5.652452 -13.987090 15.135041
DOCKED: USER    NEWDPF quaternion0 0.444397 0.285081 0.546416 0.650130
DOCKED: USER    NEWDPF axisangle0 0.584870 0.375194 0.719136 98.897152
DOCKED: USER    NEWDPF quat0 0.584870 0.375194 0.719136 98.897152
DOCKED: USER    NEWDPF dihe0 80.63 -52.36 -83.69 -119.98 22.07 81.53 123.63 137.25 177.23 127.53 -62.43 -96.94 -81.32 -7.44 -156.43 -167.20 3.66 -50.63 96.85 -92.42 7.47 104.11 -40.81 88.16 -31.66 145.56 153.37 
DOCKED: USER  keepresnum = 1 
DOCKED: USER  
DOCKED: REMARK  27 active torsions:
DOCKED: REMARK  status: ('A' for Active; 'I' for Inactive)
DOCKED: REMARK    1  A    between atoms: CA@A_1  and  C@A_3 
DOCKED: REMARK    2  A    between atoms: CA@A_1  and  O9@A_28 
DOCKED: REMARK    3  A    between atoms: CA5@A_2  and  C50@A_41 
DOCKED: REMARK    4  A    between atoms: CA5@A_2  and  O59@A_62 
DOCKED: REMARK    5  A    between atoms: C1@A_8  and  N1@A_9 
DOCKED: REMARK    6  A    between atoms: C1@A_8  and  C3@A_17 
DOCKED: REMARK    7  A    between atoms: C1@A_8  and  C2@A_13 
DOCKED: REMARK       I    between atoms: N1@A_9  and  C11@A_30 
DOCKED: REMARK    8  A    between atoms: O1@A_11  and  C2@A_13 
DOCKED: REMARK    9  A    between atoms: C2@A_13  and  C52@A_47 
DOCKED: REMARK   10  A    between atoms: N2@A_14  and  C10@A_29 
DOCKED: REMARK       I    between atoms: N2@A_14  and  C19@A_38 
DOCKED: REMARK   11  A    between atoms: C3@A_17  and  C4@A_18 
DOCKED: REMARK   12  A    between atoms: N4@A_19  and  C18@A_37 
DOCKED: REMARK       I    between atoms: N4@A_19  and  C31@A_40 
DOCKED: REMARK   13  A    between atoms: O9@A_28  and  C31@A_40 
DOCKED: REMARK   14  A    between atoms: C10@A_29  and  C11@A_30 
DOCKED: REMARK   15  A    between atoms: C10@A_29  and  C12@A_31 
DOCKED: REMARK   16  A    between atoms: C18@A_37  and  C19@A_38 
DOCKED: REMARK   17  A    between atoms: C51@A_42  and  C52@A_47 
DOCKED: REMARK   18  A    between atoms: C51@A_42  and  C53@A_51 
DOCKED: REMARK   19  A    between atoms: C51@A_42  and  N51@A_43 
DOCKED: REMARK       I    between atoms: N51@A_43  and  C61@A_64 
DOCKED: REMARK   20  A    between atoms: O51@A_45  and  C52@A_47 
DOCKED: REMARK   21  A    between atoms: N52@A_48  and  C60@A_63 
DOCKED: REMARK       I    between atoms: N52@A_48  and  C69@A_72 
DOCKED: REMARK   22  A    between atoms: C53@A_51  and  C54@A_52 
DOCKED: REMARK   23  A    between atoms: N54@A_53  and  C68@A_71 
DOCKED: REMARK       I    between atoms: N54@A_53  and  C81@A_74 
DOCKED: REMARK   24  A    between atoms: O59@A_62  and  C81@A_74 
DOCKED: REMARK   25  A    between atoms: C60@A_63  and  C61@A_64 
DOCKED: REMARK   26  A    between atoms: C60@A_63  and  C62@A_65 
DOCKED: REMARK   27  A    between atoms: C68@A_71  and  C69@A_72 
DOCKED: USER                              x       y       z     vdW  Elec       q    Type
DOCKED: USER                           _______ _______ _______ _____ _____    ______ ____
DOCKED: ROOT
DOCKED: ATOM      1  C2 A3TL A 201      -8.146 -13.044  14.368 +0.03 +0.08    +0.171 C 
DOCKED: ENDROOT
DOCKED: BRANCH   1   2
DOCKED: ATOM      2  C1 A3TL A 201      -7.167 -13.364  13.252 +0.49 +0.07    +0.120 C 
DOCKED: BRANCH   2   3
DOCKED: ATOM      3  N1 A3TL A 201      -6.964 -14.792  13.158 -0.15 -0.05    -0.352 N 
DOCKED: ATOM      4  C11A3TL A 201      -5.859 -15.308  12.639 -0.27 +0.03    +0.241 C 
DOCKED: ATOM      5  O2 A3TL A 201      -4.920 -14.640  12.260 +0.18 -0.07    -0.271 OA
DOCKED: ATOM      6  H1 A3TL A 201      -7.691 -15.420  13.501 +0.10 -0.02    +0.163 HD
DOCKED: BRANCH   4   7
DOCKED: ATOM      7  C10A3TL A 201      -5.848 -16.794  12.491 -0.23 -0.02    +0.180 C 
DOCKED: BRANCH   7   8
DOCKED: ATOM      8  N2 A3TL A 201      -5.817 -17.063  11.059 +0.91 +0.04    -0.346 N 
DOCKED: ATOM      9  C19A3TL A 201      -6.571 -16.428  10.177 -0.08 -0.02    +0.240 C 
DOCKED: ATOM     10  O4 A3TL A 201      -7.372 -15.572  10.497 -0.25 +0.02    -0.271 OA
DOCKED: ATOM     11  H2 A3TL A 201      -5.178 -17.781  10.718 +2.29 -0.00    +0.163 HD
DOCKED: BRANCH   9  12
DOCKED: ATOM     12  C18A3TL A 201      -6.403 -16.842   8.743 +0.36 +0.01    +0.174 C 
DOCKED: ATOM     13  C20A3TL A 201      -5.392 -15.929   8.058 +1.50 +0.01    +0.042 C 
DOCKED: BRANCH  12  14
DOCKED: ATOM     14  N4 A3TL A 201      -7.671 -16.822   8.035 -0.25 +0.00    -0.324 N 
DOCKED: ATOM     15  C31A3TL A 201      -8.007 -15.846   7.186 -0.23 +0.03    +0.361 C 
DOCKED: ATOM     16  O8 A3TL A 201      -7.261 -14.924   6.887 +0.17 -0.04    -0.238 OA
DOCKED: ATOM     17  H4 A3TL A 201      -8.332 -17.583   8.192 +0.15 -0.02    +0.165 HD
DOCKED: BRANCH  15  18
DOCKED: ATOM     18  O9 A3TL A 201      -9.344 -15.880   6.609 -0.75 -0.03    -0.299 OA
DOCKED: BRANCH  18  19
DOCKED: ATOM     19  CA A3TL A 201     -10.468 -15.383   7.330 -0.29 +0.03    +0.219 C 
DOCKED: BRANCH  19  20
DOCKED: ATOM     20  C  A3TL A 201     -10.895 -14.004   6.876 -0.44 +0.01    -0.034 A 
DOCKED: ATOM     21  C13A3TL A 201     -12.086 -13.458   7.381 -0.23 -0.00    +0.009 A 
DOCKED: ATOM     22  C14A3TL A 201     -12.494 -12.185   6.998 -0.17 -0.00    +0.001 A 
DOCKED: ATOM     23  C15A3TL A 201     -11.717 -11.450   6.098 -0.32 +0.00    +0.000 A 
DOCKED: ATOM     24  C16A3TL A 201     -10.530 -11.992   5.594 -0.38 +0.00    +0.001 A 
DOCKED: ATOM     25  C17A3TL A 201     -10.118 -13.272   5.990 -0.45 -0.00    +0.009 A 
DOCKED: ENDBRANCH  19  20
DOCKED: ENDBRANCH  18  19
DOCKED: ENDBRANCH  15  18
DOCKED: ENDBRANCH  12  14
DOCKED: ENDBRANCH   9  12
DOCKED: ENDBRANCH   7   8
DOCKED: BRANCH   7  26
DOCKED: ATOM     26  C12A3TL A 201      -4.667 -17.444  13.211 -0.39 +0.00    +0.009 C 
DOCKED: ATOM     27  CG1A3TL A 201      -3.368 -16.636  13.163 -0.62 +0.00    +0.012 C 
DOCKED: ATOM     28  CG2A3TL A 201      -5.008 -17.784  14.659 -0.38 +0.00    +0.012 C 
DOCKED: ENDBRANCH   7  26
DOCKED: ENDBRANCH   4   7
DOCKED: ENDBRANCH   2   3
DOCKED: BRANCH   2  29
DOCKED: ATOM     29  C3 A3TL A 201      -7.686 -12.847  11.913 +0.93 +0.03    +0.066 C 
DOCKED: BRANCH  29  30
DOCKED: ATOM     30  C4 A3TL A 201      -8.792 -13.756  11.450 -0.31 -0.00    -0.056 A 
DOCKED: ATOM     31  C5 A3TL A 201      -9.363 -13.562  10.189 -0.24 -0.00    +0.007 A 
DOCKED: ATOM     32  C6 A3TL A 201     -10.392 -14.407   9.777 -0.31 -0.00    +0.001 A 
DOCKED: ATOM     33  C7 A3TL A 201     -10.841 -15.428  10.617 +1.08 -0.00    +0.000 A 
DOCKED: ATOM     34  C8 A3TL A 201     -10.259 -15.620  11.865 -0.30 -0.00    +0.001 A 
DOCKED: ATOM     35  C9 A3TL A 201      -9.227 -14.785  12.283 -0.26 -0.00    +0.007 A 
DOCKED: ENDBRANCH  29  30
DOCKED: ENDBRANCH   2  29
DOCKED: ENDBRANCH   1   2
DOCKED: BRANCH   1  36
DOCKED: ATOM     36  O1 A3TL A 201      -9.426 -13.005  13.777 -0.39 -0.10    -0.391 OA
DOCKED: ATOM     37  H1 A3TL A 201      -9.628 -12.087  13.633 +0.12 +0.10    +0.210 HD
DOCKED: ENDBRANCH   1  36
DOCKED: BRANCH   1  38
DOCKED: ATOM     38  C52A3TL A 201      -8.228 -14.087  15.468 -0.32 +0.01    +0.171 C 
DOCKED: BRANCH  38  39
DOCKED: ATOM     39  C51A3TL A 201      -9.625 -14.533  15.856 -0.32 -0.03    +0.120 C 
DOCKED: BRANCH  39  40
DOCKED: ATOM     40  C53A3TL A 201     -10.439 -13.245  15.774 -0.21 -0.00    +0.066 C 
DOCKED: BRANCH  40  41
DOCKED: ATOM     41  C54A3TL A 201     -11.631 -13.324  14.859 -0.29 +0.01    -0.056 A 
DOCKED: ATOM     42  C55A3TL A 201     -12.275 -12.173  14.432 -0.48 +0.00    +0.007 A 
DOCKED: ATOM     43  C56A3TL A 201     -13.373 -12.254  13.585 -0.35 +0.00    +0.001 A 
DOCKED: ATOM     44  C57A3TL A 201     -13.808 -13.502  13.178 -0.31 +0.00    +0.000 A 
DOCKED: ATOM     45  C58A3TL A 201     -13.147 -14.657  13.596 -0.05 -0.00    +0.001 A 
DOCKED: ATOM     46  C59A3TL A 201     -12.054 -14.566  14.438 -0.06 -0.00    +0.007 A 
DOCKED: ENDBRANCH  40  41
DOCKED: ENDBRANCH  39  40
DOCKED: BRANCH  39  47
DOCKED: ATOM     47  N51A3TL A 201      -9.548 -15.059  17.213 -0.14 +0.08    -0.352 N 
DOCKED: ATOM     48  C61A3TL A 201      -8.529 -15.733  17.746 -0.25 -0.04    +0.241 C 
DOCKED: ATOM     49  O52A3TL A 201      -7.550 -16.121  17.122 -0.20 +0.05    -0.271 OA
DOCKED: ATOM     50  H51A3TL A 201     -10.354 -14.896  17.815 +0.13 -0.03    +0.163 HD
DOCKED: BRANCH  48  51
DOCKED: ATOM     51  C60A3TL A 201      -8.692 -16.024  19.210 -0.34 +0.00    +0.180 C 
DOCKED: BRANCH  51  52
DOCKED: ATOM     52  N52A3TL A 201      -7.420 -16.528  19.728 -0.23 +0.01    -0.346 N 
DOCKED: ATOM     53  C69A3TL A 201      -6.845 -16.139  20.869 -0.38 -0.05    +0.240 C 
DOCKED: ATOM     54  O54A3TL A 201      -7.188 -15.151  21.497 -0.24 +0.04    -0.271 OA
DOCKED: ATOM     55  H52A3TL A 201      -6.934 -17.231  19.173 +0.09 -0.01    +0.163 HD
DOCKED: BRANCH  53  56
DOCKED: ATOM     56  C68A3TL A 201      -5.662 -16.953  21.325 +0.29 -0.12    +0.174 C 
DOCKED: ATOM     57  C70A3TL A 201      -5.246 -16.693  22.771 +0.28 -0.03    +0.042 C 
DOCKED: BRANCH  56  58
DOCKED: ATOM     58  N54A3TL A 201      -4.530 -16.694  20.456 -0.12 +0.08    -0.324 N 
DOCKED: ATOM     59  C81A3TL A 201      -3.619 -15.776  20.756 -0.16 +0.06    +0.361 C 
DOCKED: ATOM     60  O58A3TL A 201      -3.692 -15.049  21.735 -0.68 -0.08    -0.238 OA
DOCKED: ATOM     61  H54A3TL A 201      -4.432 -17.230  19.594 +0.04 -0.03    +0.165 HD
DOCKED: BRANCH  59  62
DOCKED: ATOM     62  O59A3TL A 201      -2.505 -15.639  19.834 -0.19 -0.10    -0.299 OA
DOCKED: BRANCH  62  63
DOCKED: ATOM     63  CA5A3TL A 201      -1.646 -14.501  19.902 -0.19 +0.09    +0.219 C 
DOCKED: BRANCH  63  64
DOCKED: ATOM     64  C50A3TL A 201      -0.601 -14.527  18.807 -0.24 -0.01    -0.034 A 
DOCKED: ATOM     65  C63A3TL A 201       0.406 -15.492  18.854 -0.15 +0.00    +0.009 A 
DOCKED: ATOM     66  C64A3TL A 201       1.372 -15.548  17.848 -0.16 +0.00    +0.001 A 
DOCKED: ATOM     67  C65A3TL A 201       1.336 -14.641  16.793 -0.20 +0.00    +0.000 A 
DOCKED: ATOM     68  C66A3TL A 201       0.323 -13.681  16.744 -0.33 +0.00    +0.001 A 
DOCKED: ATOM     69  C67A3TL A 201      -0.653 -13.622  17.745 -0.25 +0.00    +0.009 A 
DOCKED: ENDBRANCH  63  64
DOCKED: ENDBRANCH  62  63
DOCKED: ENDBRANCH  59  62
DOCKED: ENDBRANCH  56  58
DOCKED: ENDBRANCH  53  56
DOCKED: ENDBRANCH  51  52
DOCKED: BRANCH  51  70
DOCKED: ATOM     70  C62A3TL A 201      -9.247 -14.816  19.987 -0.63 +0.00    +0.009 C 
DOCKED: ATOM     71  CG5A3TL A 201      -8.445 -13.563  19.664 -0.11 +0.00    +0.012 C 
DOCKED: ATOM     72  CG6A3TL A 201     -10.732 -14.545  19.705 -0.14 +0.00    +0.012 C 
DOCKED: ENDBRANCH  51  70
DOCKED: ENDBRANCH  48  51
DOCKED: ENDBRANCH  39  47
DOCKED: ENDBRANCH  38  39
DOCKED: BRANCH  38  73
DOCKED: ATOM     73  O51A3TL A 201      -7.533 -15.238  14.995 -0.09 +0.03    -0.391 OA
DOCKED: ATOM     74  H51A3TL A 201      -6.901 -15.471  15.665 +0.12 -0.01    +0.210 HD
DOCKED: ENDBRANCH  38  73
DOCKED: ENDBRANCH   1  38
DOCKED: TORSDOF 27
DOCKED: TER
DOCKED: ENDMDL
________________________________________________________________________________


	BEGINNING GENETIC ALGORITHM DOCKING 8 of 10
Run: 8 Seed: 1512869138 828173629 [ Run 8 of 10 GA/GALS ]
Beginning LAMARCKIAN GENETIC ALGORITHM (LGA), with a maximum of 2500000 energy evaluations.

Final-Value: -16.620


	FINAL GENETIC ALGORITHM DOCKED STATE
	_______________________________________________


Detailed state:  trans -9.143 -16.510 14.511 quatxyzw -0.837760 0.545624 -0.011938 0.017608 center -8.198 -14.354 13.542 ntor 27 46.8771 180.0000 -82.1829 144.0049 -76.1091 -79.5415 -144.1211 37.8167 -15.0575 -43.0517 176.6272 -25.4411 26.9342 24.3581 45.3425 -173.6567 92.1930 155.4998 -101.7019 171.7725 104.6143 119.2296 47.0548 -12.9543 -11.5580 98.8442 88.9632
State:	 -9.143 -16.510  14.511  -0.838  0.546 -0.012 177.982     46.88  180.00  -82.18  144.00  -76.11  -79.54 -144.12   37.82  -15.06  -43.05  176.63  -25.44   26.93   24.36   45.34 -173.66   92.19  155.50 -101.70  171.77  104.61  119.23   47.05  -12.95  -11.56   98.84   88.96

DOCKED: MODEL        8
DOCKED: USER    Run = 8
DOCKED: USER    DPF = dock.dpf
DOCKED: USER  
DOCKED: USER    Estimated Free Energy of Binding    =   -6.38 kcal/mol  [=(1)+(2)+(3)-(4)]
DOCKED: USER    Estimated Inhibition Constant, Ki   =   20.95 uM (micromolar)  [Temperature = 298.15 K]
DOCKED: USER    
DOCKED: USER    (1) Final Intermolecular Energy     =  -14.44 kcal/mol
DOCKED: USER        vdW + Hbond + desolv Energy     =  -14.44 kcal/mol
DOCKED: USER        Electrostatic Energy            =   +0.00 kcal/mol
DOCKED: USER    (2) Final Total Internal Energy     =   -2.18 kcal/mol
DOCKED: USER    (3) Torsional Free Energy           =   +8.05 kcal/mol
DOCKED: USER    (4) Unbound System's Energy  [=(2)] =   -2.18 kcal/mol
DOCKED: USER    
DOCKED: USER    
DOCKED: USER    NEWDPF move lig2p3c.pdbqt
DOCKED: USER    NEWDPF about -8.198000 -14.354000 13.542000
DOCKED: USER    NEWDPF tran0 -9.142918 -16.509506 14.510660
DOCKED: USER    NEWDPF quaternion0 -0.837760 0.545624 -0.011938 0.017608
DOCKED: USER    NEWDPF axisangle0 -0.837890 0.545708 -0.011940 177.982155
DOCKED: USER    NEWDPF quat0 -0.837890 0.545708 -0.011940 177.982155
DOCKED: USER    NEWDPF dihe0 46.88 180.00 -82.18 144.00 -76.11 -79.54 -144.12 37.82 -15.06 -43.05 176.63 -25.44 26.93 24.36 45.34 -173.66 92.19 155.50 -101.70 171.77 104.61 119.23 47.05 -12.95 -11.56 98.84 88.96 
DOCKED: USER  keepresnum = 1 
DOCKED: USER  
DOCKED: REMARK  27 active torsions:
DOCKED: REMARK  status: ('A' for Active; 'I' for Inactive)
DOCKED: REMARK    1  A    between atoms: CA@A_1  and  C@A_3 
DOCKED: REMARK    2  A    between atoms: CA@A_1  and  O9@A_28 
DOCKED: REMARK    3  A    between atoms: CA5@A_2  and  C50@A_41 
DOCKED: REMARK    4  A    between atoms: CA5@A_2  and  O59@A_62 
DOCKED: REMARK    5  A    between atoms: C1@A_8  and  N1@A_9 
DOCKED: REMARK    6  A    between atoms: C1@A_8  and  C3@A_17 
DOCKED: REMARK    7  A    between atoms: C1@A_8  and  C2@A_13 
DOCKED: REMARK       I    between atoms: N1@A_9  and  C11@A_30 
DOCKED: REMARK    8  A    between atoms: O1@A_11  and  C2@A_13 
DOCKED: REMARK    9  A    between atoms: C2@A_13  and  C52@A_47 
DOCKED: REMARK   10  A    between atoms: N2@A_14  and  C10@A_29 
DOCKED: REMARK       I    between atoms: N2@A_14  and  C19@A_38 
DOCKED: REMARK   11  A    between atoms: C3@A_17  and  C4@A_18 
DOCKED: REMARK   12  A    between atoms: N4@A_19  and  C18@A_37 
DOCKED: REMARK       I    between atoms: N4@A_19  and  C31@A_40 
DOCKED: REMARK   13  A    between atoms: O9@A_28  and  C31@A_40 
DOCKED: REMARK   14  A    between atoms: C10@A_29  and  C11@A_30 
DOCKED: REMARK   15  A    between atoms: C10@A_29  and  C12@A_31 
DOCKED: REMARK   16  A    between atoms: C18@A_37  and  C19@A_38 
DOCKED: REMARK   17  A    between atoms: C51@A_42  and  C52@A_47 
DOCKED: REMARK   18  A    between atoms: C51@A_42  and  C53@A_51 
DOCKED: REMARK   19  A    between atoms: C51@A_42  and  N51@A_43 
DOCKED: REMARK       I    between atoms: N51@A_43  and  C61@A_64 
DOCKED: REMARK   20  A    between atoms: O51@A_45  and  C52@A_47 
DOCKED: REMARK   21  A    between atoms: N52@A_48  and  C60@A_63 
DOCKED: REMARK       I    between atoms: N52@A_48  and  C69@A_72 
DOCKED: REMARK   22  A    between atoms: C53@A_51  and  C54@A_52 
DOCKED: REMARK   23  A    between atoms: N54@A_53  and  C68@A_71 
DOCKED: REMARK       I    between atoms: N54@A_53  and  C81@A_74 
DOCKED: REMARK   24  A    between atoms: O59@A_62  and  C81@A_74 
DOCKED: REMARK   25  A    between atoms: C60@A_63  and  C61@A_64 
DOCKED: REMARK   26  A    between atoms: C60@A_63  and  C62@A_65 
DOCKED: REMARK   27  A    between atoms: C68@A_71  and  C69@A_72 
DOCKED: USER                              x       y       z     vdW  Elec       q    Type
DOCKED: USER                           _______ _______ _______ _____ _____    ______ ____
DOCKED: ROOT
DOCKED: ATOM      1  C2 A3TL A 201      -7.820 -14.092  14.196 -0.31 +0.03    +0.171 C 
DOCKED: ENDROOT
DOCKED: BRANCH   1   2
DOCKED: ATOM      2  C1 A3TL A 201      -9.185 -14.039  14.859 -0.31 -0.00    +0.120 C 
DOCKED: BRANCH   2   3
DOCKED: ATOM      3  N1 A3TL A 201      -9.053 -14.184  16.291 -0.13 +0.02    -0.352 N 
DOCKED: ATOM      4  C11A3TL A 201      -8.648 -15.317  16.845 -0.24 -0.05    +0.241 C 
DOCKED: ATOM      5  O2 A3TL A 201      -8.306 -16.291  16.207 -0.21 +0.11    -0.271 OA
DOCKED: ATOM      6  H1 A3TL A 201      -9.277 -13.391  16.892 +0.10 +0.01    +0.163 HD
DOCKED: BRANCH   4   7
DOCKED: ATOM      7  C10A3TL A 201      -8.684 -15.356  18.337 -0.33 -0.01    +0.180 C 
DOCKED: BRANCH   7   8
DOCKED: ATOM      8  N2 A3TL A 201      -7.596 -16.233  18.751 -0.16 +0.02    -0.346 N 
DOCKED: ATOM      9  C19A3TL A 201      -6.565 -15.831  19.475 -0.28 -0.02    +0.240 C 
DOCKED: ATOM     10  O4 A3TL A 201      -6.432 -14.680  19.843 -0.31 +0.01    -0.271 OA
DOCKED: ATOM     11  H2 A3TL A 201      -7.632 -17.212  18.467 +0.03 -0.01    +0.163 HD
DOCKED: BRANCH   9  12
DOCKED: ATOM     12  C18A3TL A 201      -5.539 -16.878  19.805 -0.27 -0.04    +0.174 C 
DOCKED: ATOM     13  C20A3TL A 201      -6.018 -18.240  19.315 +0.35 -0.02    +0.042 C 
DOCKED: BRANCH  12  14
DOCKED: ATOM     14  N4 A3TL A 201      -5.260 -16.915  21.229 +0.11 +0.22    -0.324 N 
DOCKED: ATOM     15  C31A3TL A 201      -4.878 -15.834  21.917 -0.20 -0.05    +0.361 C 
DOCKED: ATOM     16  O8 A3TL A 201      -4.787 -14.717  21.427 -0.71 -0.07    -0.238 OA
DOCKED: ATOM     17  H4 A3TL A 201      -5.360 -17.801  21.725 -0.22 -0.33    +0.165 HD
DOCKED: BRANCH  15  18
DOCKED: ATOM     18  O9 A3TL A 201      -4.532 -16.012  23.321 -0.23 +0.01    -0.299 OA
DOCKED: BRANCH  18  19
DOCKED: ATOM     19  CA A3TL A 201      -4.322 -14.890  24.175 -0.14 +0.16    +0.219 C 
DOCKED: BRANCH  19  20
DOCKED: ATOM     20  C  A3TL A 201      -2.877 -14.440  24.210 -0.28 -0.02    -0.034 A 
DOCKED: ATOM     21  C13A3TL A 201      -2.349 -13.756  23.104 -0.35 +0.00    +0.009 A 
DOCKED: ATOM     22  C14A3TL A 201      -1.031 -13.313  23.115 -0.23 +0.00    +0.001 A 
DOCKED: ATOM     23  C15A3TL A 201      -0.227 -13.558  24.231 -0.19 +0.00    +0.000 A 
DOCKED: ATOM     24  C16A3TL A 201      -0.751 -14.239  25.335 -0.13 +0.00    +0.001 A 
DOCKED: ATOM     25  C17A3TL A 201      -2.084 -14.677  25.323 -0.19 +0.01    +0.009 A 
DOCKED: ENDBRANCH  19  20
DOCKED: ENDBRANCH  18  19
DOCKED: ENDBRANCH  15  18
DOCKED: ENDBRANCH  12  14
DOCKED: ENDBRANCH   9  12
DOCKED: ENDBRANCH   7   8
DOCKED: BRANCH   7  26
DOCKED: ATOM     26  C12A3TL A 201      -8.555 -13.967  18.960 -0.56 +0.00    +0.009 C 
DOCKED: ATOM     27  CG1A3TL A 201      -7.636 -13.009  18.198 -0.28 +0.00    +0.012 C 
DOCKED: ATOM     28  CG2A3TL A 201      -9.917 -13.314  19.171 -0.25 +0.00    +0.012 C 
DOCKED: ENDBRANCH   7  26
DOCKED: ENDBRANCH   4   7
DOCKED: ENDBRANCH   2   3
DOCKED: BRANCH   2  29
DOCKED: ATOM     29  C3 A3TL A 201      -9.882 -12.715  14.556 -0.34 +0.01    +0.066 C 
DOCKED: BRANCH  29  30
DOCKED: ATOM     30  C4 A3TL A 201     -11.103 -13.001  13.723 -0.31 -0.00    -0.056 A 
DOCKED: ATOM     31  C5 A3TL A 201     -11.700 -14.263  13.782 -0.33 -0.00    +0.007 A 
DOCKED: ATOM     32  C6 A3TL A 201     -12.824 -14.515  12.999 -0.35 -0.00    +0.001 A 
DOCKED: ATOM     33  C7 A3TL A 201     -13.339 -13.518  12.168 -0.33 +0.00    +0.000 A 
DOCKED: ATOM     34  C8 A3TL A 201     -12.745 -12.261  12.125 -0.30 +0.00    +0.001 A 
DOCKED: ATOM     35  C9 A3TL A 201     -11.625 -11.999  12.908 -0.35 +0.00    +0.007 A 
DOCKED: ENDBRANCH  29  30
DOCKED: ENDBRANCH   2  29
DOCKED: ENDBRANCH   1   2
DOCKED: BRANCH   1  36
DOCKED: ATOM     36  O1 A3TL A 201      -7.172 -12.881  14.519 -0.81 -0.25    -0.391 OA
DOCKED: ATOM     37  H1 A3TL A 201      -6.804 -12.548  13.708 +0.12 +0.21    +0.210 HD
DOCKED: ENDBRANCH   1  36
DOCKED: BRANCH   1  38
DOCKED: ATOM     38  C52A3TL A 201      -6.907 -15.197  14.695 -0.25 +0.01    +0.171 C 
DOCKED: BRANCH  38  39
DOCKED: ATOM     39  C51A3TL A 201      -5.705 -15.508  13.823 -0.32 +0.02    +0.120 C 
DOCKED: BRANCH  39  40
DOCKED: ATOM     40  C53A3TL A 201      -6.265 -16.477  12.787 -0.36 -0.01    +0.066 C 
DOCKED: BRANCH  40  41
DOCKED: ATOM     41  C54A3TL A 201      -7.744 -16.731  12.915 -0.27 +0.04    -0.056 A 
DOCKED: ATOM     42  C55A3TL A 201      -8.244 -17.496  13.958 -0.35 -0.01    +0.007 A 
DOCKED: ATOM     43  C56A3TL A 201      -9.609 -17.724  14.071 -0.37 -0.00    +0.001 A 
DOCKED: ATOM     44  C57A3TL A 201     -10.456 -17.173  13.125 -0.36 -0.00    +0.000 A 
DOCKED: ATOM     45  C58A3TL A 201      -9.950 -16.392  12.087 -0.35 -0.00    +0.001 A 
DOCKED: ATOM     46  C59A3TL A 201      -8.589 -16.169  11.984 -0.31 -0.00    +0.007 A 
DOCKED: ENDBRANCH  40  41
DOCKED: ENDBRANCH  39  40
DOCKED: BRANCH  39  47
DOCKED: ATOM     47  N51A3TL A 201      -4.700 -16.126  14.680 -0.12 -0.06    -0.352 N 
DOCKED: ATOM     48  C61A3TL A 201      -3.395 -15.856  14.694 -0.31 +0.06    +0.241 C 
DOCKED: ATOM     49  O52A3TL A 201      -2.827 -15.130  13.889 -0.36 -0.07    -0.271 OA
DOCKED: ATOM     50  H51A3TL A 201      -5.029 -16.836  15.334 +0.10 +0.01    +0.163 HD
DOCKED: BRANCH  48  51
DOCKED: ATOM     51  C60A3TL A 201      -2.640 -16.560  15.784 -0.26 +0.06    +0.180 C 
DOCKED: BRANCH  51  52
DOCKED: ATOM     52  N52A3TL A 201      -1.449 -15.776  16.106 -0.12 -0.11    -0.346 N 
DOCKED: ATOM     53  C69A3TL A 201      -1.397 -14.442  16.163 -0.27 +0.06    +0.240 C 
DOCKED: ATOM     54  O54A3TL A 201      -2.269 -13.712  15.724 +0.06 -0.04    -0.271 OA
DOCKED: ATOM     55  H52A3TL A 201      -0.589 -16.288  16.303 +0.06 +0.06    +0.163 HD
DOCKED: BRANCH  53  56
DOCKED: ATOM     56  C68A3TL A 201      -0.136 -13.854  16.740 -0.32 +0.05    +0.174 C 
DOCKED: ATOM     57  C70A3TL A 201       1.141 -14.573  16.312 -0.05 +0.01    +0.042 C 
DOCKED: BRANCH  56  58
DOCKED: ATOM     58  N54A3TL A 201      -0.216 -13.857  18.188 -0.05 -0.12    -0.324 N 
DOCKED: ATOM     59  C81A3TL A 201       0.175 -14.905  18.903 -0.10 +0.14    +0.361 C 
DOCKED: ATOM     60  O58A3TL A 201       0.565 -15.952  18.408 -0.08 -0.10    -0.238 OA
DOCKED: ATOM     61  H54A3TL A 201      -0.580 -13.034  18.668 +0.20 +0.07    +0.165 HD
DOCKED: BRANCH  59  62
DOCKED: ATOM     62  O59A3TL A 201       0.092 -14.775  20.347 -0.12 -0.12    -0.299 OA
DOCKED: BRANCH  62  63
DOCKED: ATOM     63  CA5A3TL A 201       0.820 -15.662  21.196 -0.06 +0.10    +0.219 C 
DOCKED: BRANCH  63  64
DOCKED: ATOM     64  C50A3TL A 201      -0.091 -16.681  21.847 -0.05 -0.02    -0.034 A 
DOCKED: ATOM     65  C63A3TL A 201       0.405 -17.464  22.891 -0.01 +0.01    +0.009 A 
DOCKED: ATOM     66  C64A3TL A 201      -0.419 -18.400  23.519 -0.03 +0.00    +0.001 A 
DOCKED: ATOM     67  C65A3TL A 201      -1.739 -18.557  23.106 -0.09 +0.00    +0.000 A 
DOCKED: ATOM     68  C66A3TL A 201      -2.234 -17.768  22.066 -0.07 +0.00    +0.001 A 
DOCKED: ATOM     69  C67A3TL A 201      -1.417 -16.824  21.436 -0.11 +0.00    +0.009 A 
DOCKED: ENDBRANCH  63  64
DOCKED: ENDBRANCH  62  63
DOCKED: ENDBRANCH  59  62
DOCKED: ENDBRANCH  56  58
DOCKED: ENDBRANCH  53  56
DOCKED: ENDBRANCH  51  52
DOCKED: BRANCH  51  70
DOCKED: ATOM     70  C62A3TL A 201      -3.530 -16.872  17.002 -0.28 +0.00    +0.009 C 
DOCKED: ATOM     71  CG5A3TL A 201      -2.721 -16.781  18.288 -0.25 +0.00    +0.012 C 
DOCKED: ATOM     72  CG6A3TL A 201      -4.750 -15.946  17.113 +0.17 -0.00    +0.012 C 
DOCKED: ENDBRANCH  51  70
DOCKED: ENDBRANCH  48  51
DOCKED: ENDBRANCH  39  47
DOCKED: ENDBRANCH  38  39
DOCKED: BRANCH  38  73
DOCKED: ATOM     73  O51A3TL A 201      -6.413 -14.780  15.965 -0.09 -0.03    -0.391 OA
DOCKED: ATOM     74  H51A3TL A 201      -6.793 -13.929  16.141 +0.03 +0.03    +0.210 HD
DOCKED: ENDBRANCH  38  73
DOCKED: ENDBRANCH   1  38
DOCKED: TORSDOF 27
DOCKED: TER
DOCKED: ENDMDL
________________________________________________________________________________


	BEGINNING GENETIC ALGORITHM DOCKING 9 of 10
Run: 9 Seed: 1885638112 717544453 [ Run 9 of 10 GA/GALS ]
Beginning LAMARCKIAN GENETIC ALGORITHM (LGA), with a maximum of 2500000 energy evaluations.

Final-Value: -6.300


	FINAL GENETIC ALGORITHM DOCKED STATE
	_______________________________________________


Detailed state:  trans -5.713 -13.989 16.988 quatxyzw -0.125378 -0.097244 0.294625 -0.942348 center -8.198 -14.354 13.542 ntor 27 140.4575 122.0901 165.1350 -172.4511 117.1320 -51.5321 -143.1542 -39.4155 -87.8193 -105.0801 -90.5648 135.8958 177.6854 -108.6253 -177.7156 -170.7923 -13.4737 83.1317 179.3597 62.6386 -30.9966 -127.4448 21.4030 -178.7368 -154.6297 -46.1073 53.5258
State:	 -5.713 -13.989  16.988  -0.375 -0.291  0.880 -39.101    140.46  122.09  165.13 -172.45  117.13  -51.53 -143.15  -39.42  -87.82 -105.08  -90.56  135.90  177.69 -108.63 -177.72 -170.79  -13.47   83.13  179.36   62.64  -31.00 -127.44   21.40 -178.74 -154.63  -46.11   53.53

DOCKED: MODEL        9
DOCKED: USER    Run = 9
DOCKED: USER    DPF = dock.dpf
DOCKED: USER  
DOCKED: USER    Estimated Free Energy of Binding    =   +5.64 kcal/mol  [=(1)+(2)+(3)-(4)]
DOCKED: USER    
DOCKED: USER    (1) Final Intermolecular Energy     =   -2.41 kcal/mol
DOCKED: USER        vdW + Hbond + desolv Energy     =   -2.89 kcal/mol
DOCKED: USER        Electrostatic Energy            =   +0.48 kcal/mol
DOCKED: USER    (2) Final Total Internal Energy     =   -3.89 kcal/mol
DOCKED: USER    (3) Torsional Free Energy           =   +8.05 kcal/mol
DOCKED: USER    (4) Unbound System's Energy  [=(2)] =   -3.89 kcal/mol
DOCKED: USER    
DOCKED: USER    
DOCKED: USER    NEWDPF move lig2p3c.pdbqt
DOCKED: USER    NEWDPF about -8.198000 -14.354000 13.542000
DOCKED: USER    NEWDPF tran0 -5.713104 -13.988860 16.988248
DOCKED: USER    NEWDPF quaternion0 -0.125378 -0.097244 0.294625 -0.942348
DOCKED: USER    NEWDPF axisangle0 -0.374672 -0.290599 0.880439 -39.100596
DOCKED: USER    NEWDPF quat0 -0.374672 -0.290599 0.880439 -39.100596
DOCKED: USER    NEWDPF dihe0 140.46 122.09 165.13 -172.45 117.13 -51.53 -143.15 -39.42 -87.82 -105.08 -90.56 135.90 177.69 -108.63 -177.72 -170.79 -13.47 83.13 179.36 62.64 -31.00 -127.44 21.40 -178.74 -154.63 -46.11 53.53 
DOCKED: USER  keepresnum = 1 
DOCKED: USER  
DOCKED: REMARK  27 active torsions:
DOCKED: REMARK  status: ('A' for Active; 'I' for Inactive)
DOCKED: REMARK    1  A    between atoms: CA@A_1  and  C@A_3 
DOCKED: REMARK    2  A    between atoms: CA@A_1  and  O9@A_28 
DOCKED: REMARK    3  A    between atoms: CA5@A_2  and  C50@A_41 
DOCKED: REMARK    4  A    between atoms: CA5@A_2  and  O59@A_62 
DOCKED: REMARK    5  A    between atoms: C1@A_8  and  N1@A_9 
DOCKED: REMARK    6  A    between atoms: C1@A_8  and  C3@A_17 
DOCKED: REMARK    7  A    between atoms: C1@A_8  and  C2@A_13 
DOCKED: REMARK       I    between atoms: N1@A_9  and  C11@A_30 
DOCKED: REMARK    8  A    between atoms: O1@A_11  and  C2@A_13 
DOCKED: REMARK    9  A    between atoms: C2@A_13  and  C52@A_47 
DOCKED: REMARK   10  A    between atoms: N2@A_14  and  C10@A_29 
DOCKED: REMARK       I    between atoms: N2@A_14  and  C19@A_38 
DOCKED: REMARK   11  A    between atoms: C3@A_17  and  C4@A_18 
DOCKED: REMARK   12  A    between atoms: N4@A_19  and  C18@A_37 
DOCKED: REMARK       I    between atoms: N4@A_19  and  C31@A_40 
DOCKED: REMARK   13  A    between atoms: O9@A_28  and  C31@A_40 
DOCKED: REMARK   14  A    between atoms: C10@A_29  and  C11@A_30 
DOCKED: REMARK   15  A    between atoms: C10@A_29  and  C12@A_31 
DOCKED: REMARK   16  A    between atoms: C18@A_37  and  C19@A_38 
DOCKED: REMARK   17  A    between atoms: C51@A_42  and  C52@A_47 
DOCKED: REMARK   18  A    between atoms: C51@A_42  and  C53@A_51 
DOCKED: REMARK   19  A    between atoms: C51@A_42  and  N51@A_43 
DOCKED: REMARK       I    between atoms: N51@A_43  and  C61@A_64 
DOCKED: REMARK   20  A    between atoms: O51@A_45  and  C52@A_47 
DOCKED: REMARK   21  A    between atoms: N52@A_48  and  C60@A_63 
DOCKED: REMARK       I    between atoms: N52@A_48  and  C69@A_72 
DOCKED: REMARK   22  A    between atoms: C53@A_51  and  C54@A_52 
DOCKED: REMARK   23  A    between atoms: N54@A_53  and  C68@A_71 
DOCKED: REMARK       I    between atoms: N54@A_53  and  C81@A_74 
DOCKED: REMARK   24  A    between atoms: O59@A_62  and  C81@A_74 
DOCKED: REMARK   25  A    between atoms: C60@A_63  and  C61@A_64 
DOCKED: REMARK   26  A    between atoms: C60@A_63  and  C62@A_65 
DOCKED: REMARK   27  A    between atoms: C68@A_71  and  C69@A_72 
DOCKED: USER                              x       y       z     vdW  Elec       q    Type
DOCKED: USER                           _______ _______ _______ _____ _____    ______ ____
DOCKED: ROOT
DOCKED: ATOM      1  C2 A3TL A 201      -5.966 -16.671  17.650 -0.23 -0.01    +0.171 C 
DOCKED: ENDROOT
DOCKED: BRANCH   1   2
DOCKED: ATOM      2  C1 A3TL A 201      -6.916 -16.139  16.591 -0.26 -0.02    +0.120 C 
DOCKED: BRANCH   2   3
DOCKED: ATOM      3  N1 A3TL A 201      -7.608 -14.968  17.081 -0.12 +0.02    -0.352 N 
DOCKED: ATOM      4  C11A3TL A 201      -8.792 -15.051  17.670 -0.27 -0.02    +0.241 C 
DOCKED: ATOM      5  O2 A3TL A 201      -9.357 -16.101  17.894 -0.21 +0.07    -0.271 OA
DOCKED: ATOM      6  H1 A3TL A 201      -7.172 -14.052  16.970 -0.02 +0.00    +0.163 HD
DOCKED: BRANCH   4   7
DOCKED: ATOM      7  C10A3TL A 201      -9.439 -13.748  18.005 -0.25 +0.01    +0.180 C 
DOCKED: BRANCH   7   8
DOCKED: ATOM      8  N2 A3TL A 201      -9.948 -13.208  16.751 +0.80 -0.02    -0.346 N 
DOCKED: ATOM      9  C19A3TL A 201     -10.495 -13.949  15.802 -0.26 -0.05    +0.240 C 
DOCKED: ATOM     10  O4 A3TL A 201     -10.600 -15.156  15.894 -0.25 +0.21    -0.271 OA
DOCKED: ATOM     11  H2 A3TL A 201      -9.880 -12.202  16.597 +1.40 +0.04    +0.163 HD
DOCKED: BRANCH   9  12
DOCKED: ATOM     12  C18A3TL A 201     -10.961 -13.217  14.576 -0.32 -0.00    +0.174 C 
DOCKED: ATOM     13  C20A3TL A 201     -12.484 -13.244  14.508 +0.20 -0.00    +0.042 C 
DOCKED: BRANCH  12  14
DOCKED: ATOM     14  N4 A3TL A 201     -10.386 -13.785  13.370 -0.09 +0.03    -0.324 N 
DOCKED: ATOM     15  C31A3TL A 201     -10.892 -14.868  12.771 -0.13 -0.16    +0.361 C 
DOCKED: ATOM     16  O8 A3TL A 201     -11.907 -15.436  13.148 -0.30 +0.19    -0.238 OA
DOCKED: ATOM     17  H4 A3TL A 201      -9.563 -13.340  12.963 +0.09 +0.02    +0.165 HD
DOCKED: BRANCH  15  18
DOCKED: ATOM     18  O9 A3TL A 201     -10.173 -15.405  11.624 -0.19 +0.15    -0.299 OA
DOCKED: BRANCH  18  19
DOCKED: ATOM     19  CA A3TL A 201      -9.233 -14.609  10.906 -0.23 -0.03    +0.219 C 
DOCKED: BRANCH  19  20
DOCKED: ATOM     20  C  A3TL A 201      -8.892 -15.182   9.547 -0.35 +0.00    -0.034 A 
DOCKED: ATOM     21  C13A3TL A 201      -7.782 -16.032   9.425 -0.45 -0.00    +0.009 A 
DOCKED: ATOM     22  C14A3TL A 201      -7.455 -16.589   8.194 -0.52 +0.00    +0.001 A 
DOCKED: ATOM     23  C15A3TL A 201      -8.233 -16.294   7.071 -0.52 +0.00    +0.000 A 
DOCKED: ATOM     24  C16A3TL A 201      -9.341 -15.448   7.191 -0.56 +0.00    +0.001 A 
DOCKED: ATOM     25  C17A3TL A 201      -9.672 -14.895   8.436 -0.40 -0.00    +0.009 A 
DOCKED: ENDBRANCH  19  20
DOCKED: ENDBRANCH  18  19
DOCKED: ENDBRANCH  15  18
DOCKED: ENDBRANCH  12  14
DOCKED: ENDBRANCH   9  12
DOCKED: ENDBRANCH   7   8
DOCKED: BRANCH   7  26
DOCKED: ATOM     26  C12A3TL A 201     -10.549 -13.898  19.045 -0.51 +0.00    +0.009 C 
DOCKED: ATOM     27  CG1A3TL A 201     -11.706 -12.907  18.891 +0.54 +0.00    +0.012 C 
DOCKED: ATOM     28  CG2A3TL A 201     -11.094 -15.322  19.087 +0.05 -0.00    +0.012 C 
DOCKED: ENDBRANCH   7  26
DOCKED: ENDBRANCH   4   7
DOCKED: ENDBRANCH   2   3
DOCKED: BRANCH   2  29
DOCKED: ATOM     29  C3 A3TL A 201      -6.156 -15.771  15.319 -0.28 +0.00    +0.066 C 
DOCKED: BRANCH  29  30
DOCKED: ATOM     30  C4 A3TL A 201      -5.325 -16.955  14.903 -0.26 -0.00    -0.056 A 
DOCKED: ATOM     31  C5 A3TL A 201      -5.927 -18.208  14.767 -0.30 -0.00    +0.007 A 
DOCKED: ATOM     32  C6 A3TL A 201      -5.143 -19.296  14.388 +0.30 +0.00    +0.001 A 
DOCKED: ATOM     33  C7 A3TL A 201      -3.777 -19.128  14.153 +1.71 +0.00    +0.000 A 
DOCKED: ATOM     34  C8 A3TL A 201      -3.189 -17.874  14.281 +0.65 +0.00    +0.001 A 
DOCKED: ATOM     35  C9 A3TL A 201      -3.965 -16.781  14.652 -0.35 +0.00    +0.007 A 
DOCKED: ENDBRANCH  29  30
DOCKED: ENDBRANCH   2  29
DOCKED: ENDBRANCH   1   2
DOCKED: BRANCH   1  36
DOCKED: ATOM     36  O1 A3TL A 201      -5.971 -18.076  17.519 -0.13 +0.05    -0.391 OA
DOCKED: ATOM     37  H1 A3TL A 201      -6.870 -18.326  17.341 -0.30 -0.13    +0.210 HD
DOCKED: ENDBRANCH   1  36
DOCKED: BRANCH   1  38
DOCKED: ATOM     38  C52A3TL A 201      -4.519 -16.243  17.486 +0.05 +0.00    +0.171 C 
DOCKED: BRANCH  38  39
DOCKED: ATOM     39  C51A3TL A 201      -3.861 -15.647  18.716 +1.39 -0.00    +0.120 C 
DOCKED: BRANCH  39  40
DOCKED: ATOM     40  C53A3TL A 201      -2.551 -16.421  18.822 -0.22 +0.02    +0.066 C 
DOCKED: BRANCH  40  41
DOCKED: ATOM     41  C54A3TL A 201      -1.371 -15.728  18.195 -0.21 -0.02    -0.056 A 
DOCKED: ATOM     42  C55A3TL A 201      -1.262 -15.621  16.817 -0.29 +0.00    +0.007 A 
DOCKED: ATOM     43  C56A3TL A 201      -0.171 -14.978  16.246 +0.28 +0.00    +0.001 A 
DOCKED: ATOM     44  C57A3TL A 201       0.799 -14.448  17.078 -0.25 +0.00    +0.000 A 
DOCKED: ATOM     45  C58A3TL A 201       0.677 -14.544  18.463 -0.17 +0.00    +0.001 A 
DOCKED: ATOM     46  C59A3TL A 201      -0.413 -15.185  19.023 -0.22 +0.00    +0.007 A 
DOCKED: ENDBRANCH  40  41
DOCKED: ENDBRANCH  39  40
DOCKED: BRANCH  39  47
DOCKED: ATOM     47  N51A3TL A 201      -4.750 -15.895  19.844 -0.13 +0.02    -0.352 N 
DOCKED: ATOM     48  C61A3TL A 201      -5.176 -17.083  20.272 +0.09 -0.11    +0.241 C 
DOCKED: ATOM     49  O52A3TL A 201      -4.978 -18.143  19.691 +0.08 +0.19    -0.271 OA
DOCKED: ATOM     50  H51A3TL A 201      -5.080 -15.078  20.357 -0.03 +0.01    +0.163 HD
DOCKED: BRANCH  48  51
DOCKED: ATOM     51  C60A3TL A 201      -5.975 -17.022  21.541 +0.21 -0.14    +0.180 C 
DOCKED: BRANCH  51  52
DOCKED: ATOM     52  N52A3TL A 201      -5.343 -16.059  22.442 -0.10 +0.17    -0.346 N 
DOCKED: ATOM     53  C69A3TL A 201      -4.172 -16.236  23.060 -0.22 -0.00    +0.240 C 
DOCKED: ATOM     54  O54A3TL A 201      -3.603 -17.312  23.136 -0.13 +0.04    -0.271 OA
DOCKED: ATOM     55  H52A3TL A 201      -5.836 -15.183  22.613 -0.15 -0.05    +0.163 HD
DOCKED: BRANCH  53  56
DOCKED: ATOM     56  C68A3TL A 201      -3.600 -15.026  23.752 -0.30 +0.09    +0.174 C 
DOCKED: ATOM     57  C70A3TL A 201      -3.933 -13.701  23.069 +1.15 +0.02    +0.042 C 
DOCKED: BRANCH  56  58
DOCKED: ATOM     58  N54A3TL A 201      -2.159 -15.157  23.849 -0.07 -0.16    -0.324 N 
DOCKED: ATOM     59  C81A3TL A 201      -1.353 -14.691  22.901 -0.11 +0.16    +0.361 C 
DOCKED: ATOM     60  O58A3TL A 201      -1.755 -14.182  21.865 -0.34 -0.11    -0.238 OA
DOCKED: ATOM     61  H54A3TL A 201      -1.755 -15.617  24.664 +0.05 +0.10    +0.165 HD
DOCKED: BRANCH  59  62
DOCKED: ATOM     62  O59A3TL A 201       0.073 -14.838  23.130 -0.05 -0.13    -0.299 OA
DOCKED: BRANCH  62  63
DOCKED: ATOM     63  CA5A3TL A 201       0.666 -16.135  23.198 -0.01 +0.10    +0.219 C 
DOCKED: BRANCH  63  64
DOCKED: ATOM     64  C50A3TL A 201       0.374 -16.946  21.954 -0.03 -0.02    -0.034 A 
DOCKED: ATOM     65  C63A3TL A 201       1.430 -17.301  21.113 -0.02 +0.01    +0.009 A 
DOCKED: ATOM     66  C64A3TL A 201       1.191 -18.061  19.968 -0.05 +0.00    +0.001 A 
DOCKED: ATOM     67  C65A3TL A 201      -0.104 -18.471  19.658 -0.10 +0.00    +0.000 A 
DOCKED: ATOM     68  C66A3TL A 201      -1.157 -18.121  20.506 +0.44 +0.00    +0.001 A 
DOCKED: ATOM     69  C67A3TL A 201      -0.924 -17.364  21.658 -0.08 +0.01    +0.009 A 
DOCKED: ENDBRANCH  63  64
DOCKED: ENDBRANCH  62  63
DOCKED: ENDBRANCH  59  62
DOCKED: ENDBRANCH  56  58
DOCKED: ENDBRANCH  53  56
DOCKED: ENDBRANCH  51  52
DOCKED: BRANCH  51  70
DOCKED: ATOM     70  C62A3TL A 201      -7.467 -16.744  21.279 -0.47 -0.00    +0.009 C 
DOCKED: ATOM     71  CG5A3TL A 201      -7.797 -15.290  21.580 -0.35 -0.00    +0.012 C 
DOCKED: ATOM     72  CG6A3TL A 201      -7.898 -17.068  19.841 -0.26 +0.00    +0.012 C 
DOCKED: ENDBRANCH  51  70
DOCKED: ENDBRANCH  48  51
DOCKED: ENDBRANCH  39  47
DOCKED: ENDBRANCH  38  39
DOCKED: BRANCH  38  73
DOCKED: ATOM     73  O51A3TL A 201      -3.782 -17.411  17.136 -0.06 -0.11    -0.391 OA
DOCKED: ATOM     74  H51A3TL A 201      -3.918 -18.041  17.833 +0.12 +0.07    +0.210 HD
DOCKED: ENDBRANCH  38  73
DOCKED: ENDBRANCH   1  38
DOCKED: TORSDOF 27
DOCKED: TER
DOCKED: ENDMDL
________________________________________________________________________________


	BEGINNING GENETIC ALGORITHM DOCKING 10 of 10
Run: 10 Seed: 74733504 1202138967 [ Run 10 of 10 GA/GALS ]
Beginning LAMARCKIAN GENETIC ALGORITHM (LGA), with a maximum of 2500000 energy evaluations.

Final-Value: 95.726


	FINAL GENETIC ALGORITHM DOCKED STATE
	_______________________________________________


Detailed state:  trans -4.131 -13.709 17.809 quatxyzw -0.541785 -0.692349 0.404634 0.251778 center -8.198 -14.354 13.542 ntor 27 -80.2605 162.7268 165.2629 144.4481 150.3361 151.4774 49.0917 133.2844 -32.9886 -56.2915 104.6435 178.7267 108.5896 8.6146 55.0630 -179.5001 -137.0348 -33.7222 30.7637 -149.1992 -93.9446 -95.3110 -21.7189 84.9753 68.9128 -21.4990 20.0024
State:	 -4.131 -13.709  17.809  -0.560 -0.715  0.418 150.834    -80.26  162.73  165.26  144.45  150.34  151.48   49.09  133.28  -32.99  -56.29  104.64  178.73  108.59    8.61   55.06 -179.50 -137.03  -33.72   30.76 -149.20  -93.94  -95.31  -21.72   84.98   68.91  -21.50   20.00

DOCKED: MODEL       10
DOCKED: USER    Run = 10
DOCKED: USER    DPF = dock.dpf
DOCKED: USER  
DOCKED: USER    Estimated Free Energy of Binding    =  +69.43 kcal/mol  [=(1)+(2)+(3)-(4)]
DOCKED: USER    
DOCKED: USER    (1) Final Intermolecular Energy     =  +61.38 kcal/mol
DOCKED: USER        vdW + Hbond + desolv Energy     =  +62.16 kcal/mol
DOCKED: USER        Electrostatic Energy            =   -0.78 kcal/mol
DOCKED: USER    (2) Final Total Internal Energy     =  +34.35 kcal/mol
DOCKED: USER    (3) Torsional Free Energy           =   +8.05 kcal/mol
DOCKED: USER    (4) Unbound System's Energy  [=(2)] =  +34.35 kcal/mol
DOCKED: USER    
DOCKED: USER    
DOCKED: USER    NEWDPF move lig2p3c.pdbqt
DOCKED: USER    NEWDPF about -8.198000 -14.354000 13.542000
DOCKED: USER    NEWDPF tran0 -4.130783 -13.709111 17.809172
DOCKED: USER    NEWDPF quaternion0 -0.541785 -0.692349 0.404634 0.251778
DOCKED: USER    NEWDPF axisangle0 -0.559820 -0.715396 0.418103 150.834479
DOCKED: USER    NEWDPF quat0 -0.559820 -0.715396 0.418103 150.834479
DOCKED: USER    NEWDPF dihe0 -80.26 162.73 165.26 144.45 150.34 151.48 49.09 133.28 -32.99 -56.29 104.64 178.73 108.59 8.61 55.06 -179.50 -137.03 -33.72 30.76 -149.20 -93.94 -95.31 -21.72 84.98 68.91 -21.50 20.00 
DOCKED: USER  keepresnum = 1 
DOCKED: USER  
DOCKED: REMARK  27 active torsions:
DOCKED: REMARK  status: ('A' for Active; 'I' for Inactive)
DOCKED: REMARK    1  A    between atoms: CA@A_1  and  C@A_3 
DOCKED: REMARK    2  A    between atoms: CA@A_1  and  O9@A_28 
DOCKED: REMARK    3  A    between atoms: CA5@A_2  and  C50@A_41 
DOCKED: REMARK    4  A    between atoms: CA5@A_2  and  O59@A_62 
DOCKED: REMARK    5  A    between atoms: C1@A_8  and  N1@A_9 
DOCKED: REMARK    6  A    between atoms: C1@A_8  and  C3@A_17 
DOCKED: REMARK    7  A    between atoms: C1@A_8  and  C2@A_13 
DOCKED: REMARK       I    between atoms: N1@A_9  and  C11@A_30 
DOCKED: REMARK    8  A    between atoms: O1@A_11  and  C2@A_13 
DOCKED: REMARK    9  A    between atoms: C2@A_13  and  C52@A_47 
DOCKED: REMARK   10  A    between atoms: N2@A_14  and  C10@A_29 
DOCKED: REMARK       I    between atoms: N2@A_14  and  C19@A_38 
DOCKED: REMARK   11  A    between atoms: C3@A_17  and  C4@A_18 
DOCKED: REMARK   12  A    between atoms: N4@A_19  and  C18@A_37 
DOCKED: REMARK       I    between atoms: N4@A_19  and  C31@A_40 
DOCKED: REMARK   13  A    between atoms: O9@A_28  and  C31@A_40 
DOCKED: REMARK   14  A    between atoms: C10@A_29  and  C11@A_30 
DOCKED: REMARK   15  A    between atoms: C10@A_29  and  C12@A_31 
DOCKED: REMARK   16  A    between atoms: C18@A_37  and  C19@A_38 
DOCKED: REMARK   17  A    between atoms: C51@A_42  and  C52@A_47 
DOCKED: REMARK   18  A    between atoms: C51@A_42  and  C53@A_51 
DOCKED: REMARK   19  A    between atoms: C51@A_42  and  N51@A_43 
DOCKED: REMARK       I    between atoms: N51@A_43  and  C61@A_64 
DOCKED: REMARK   20  A    between atoms: O51@A_45  and  C52@A_47 
DOCKED: REMARK   21  A    between atoms: N52@A_48  and  C60@A_63 
DOCKED: REMARK       I    between atoms: N52@A_48  and  C69@A_72 
DOCKED: REMARK   22  A    between atoms: C53@A_51  and  C54@A_52 
DOCKED: REMARK   23  A    between atoms: N54@A_53  and  C68@A_71 
DOCKED: REMARK       I    between atoms: N54@A_53  and  C81@A_74 
DOCKED: REMARK   24  A    between atoms: O59@A_62  and  C81@A_74 
DOCKED: REMARK   25  A    between atoms: C60@A_63  and  C61@A_64 
DOCKED: REMARK   26  A    between atoms: C60@A_63  and  C62@A_65 
DOCKED: REMARK   27  A    between atoms: C68@A_71  and  C69@A_72 
DOCKED: USER                              x       y       z     vdW  Elec       q    Type
DOCKED: USER                           _______ _______ _______ _____ _____    ______ ____
DOCKED: ROOT
DOCKED: ATOM      1  C2 A3TL A 201      -5.758 -14.996  19.651 +0.74 -0.02    +0.171 C 
DOCKED: ENDROOT
DOCKED: BRANCH   1   2
DOCKED: ATOM      2  C1 A3TL A 201      -4.353 -14.649  20.110 +2.98 +0.03    +0.120 C 
DOCKED: BRANCH   2   3
DOCKED: ATOM      3  N1 A3TL A 201      -4.220 -14.875  21.532 -0.16 -0.12    -0.352 N 
DOCKED: ATOM      4  C11A3TL A 201      -3.606 -14.007  22.324 +0.39 +0.13    +0.241 C 
DOCKED: ATOM      5  O2 A3TL A 201      -3.165 -12.945  21.939 +3.58 -0.21    -0.271 OA
DOCKED: ATOM      6  H1 A3TL A 201      -4.610 -15.726  21.937 +0.08 -0.01    +0.163 HD
DOCKED: BRANCH   4   7
DOCKED: ATOM      7  C10A3TL A 201      -3.434 -14.437  23.743 -0.30 +0.09    +0.180 C 
DOCKED: BRANCH   7   8
DOCKED: ATOM      8  N2 A3TL A 201      -3.742 -15.862  23.780 -0.13 -0.14    -0.346 N 
DOCKED: ATOM      9  C19A3TL A 201      -4.818 -16.364  24.362 +1.06 +0.05    +0.240 C 
DOCKED: ATOM     10  O4 A3TL A 201      -5.636 -15.672  24.935 +8.59 -0.31    -0.271 OA
DOCKED: ATOM     11  H2 A3TL A 201      -3.092 -16.506  23.331 +0.06 +0.04    +0.163 HD
DOCKED: BRANCH   9  12
DOCKED: ATOM     12  C18A3TL A 201      -4.967 -17.858  24.301 +0.16 -0.08    +0.174 C 
DOCKED: ATOM     13  C20A3TL A 201      -5.136 -18.417  25.709 -0.20 +0.00    +0.042 C 
DOCKED: BRANCH  12  14
DOCKED: ATOM     14  N4 A3TL A 201      -3.831 -18.475  23.639 +0.36 +0.12    -0.324 N 
DOCKED: ATOM     15  C31A3TL A 201      -3.315 -18.000  22.501 +4.25 -0.18    +0.361 C 
DOCKED: ATOM     16  O8 A3TL A 201      -3.709 -16.980  21.953 -0.12 +0.07    -0.238 OA
DOCKED: ATOM     17  H4 A3TL A 201      -3.411 -19.304  24.058 -0.04 +0.03    +0.165 HD
DOCKED: BRANCH  15  18
DOCKED: ATOM     18  O9 A3TL A 201      -2.239 -18.758  21.877 +1.28 -0.23    -0.299 OA
DOCKED: BRANCH  18  19
DOCKED: ATOM     19  CA A3TL A 201      -0.877 -18.527  22.229 +0.06 +0.20    +0.219 C 
DOCKED: BRANCH  19  20
DOCKED: ATOM     20  C  A3TL A 201      -0.094 -17.838  21.131 -0.06 -0.03    -0.034 A 
DOCKED: ATOM     21  C13A3TL A 201       0.012 -18.459  19.877 -0.09 +0.01    +0.009 A 
DOCKED: ATOM     22  C14A3TL A 201       0.707 -17.842  18.843 -0.09 +0.00    +0.001 A 
DOCKED: ATOM     23  C15A3TL A 201       1.310 -16.599  19.058 -0.07 +0.00    +0.000 A 
DOCKED: ATOM     24  C16A3TL A 201       1.205 -15.978  20.308 -0.07 +0.00    +0.001 A 
DOCKED: ATOM     25  C17A3TL A 201       0.495 -16.600  21.345 -0.05 +0.00    +0.009 A 
DOCKED: ENDBRANCH  19  20
DOCKED: ENDBRANCH  18  19
DOCKED: ENDBRANCH  15  18
DOCKED: ENDBRANCH  12  14
DOCKED: ENDBRANCH   9  12
DOCKED: ENDBRANCH   7   8
DOCKED: BRANCH   7  26
DOCKED: ATOM     26  C12A3TL A 201      -2.030 -14.152  24.273 -0.30 +0.00    +0.009 C 
DOCKED: ATOM     27  CG1A3TL A 201      -1.519 -15.161  25.304 -0.15 +0.01    +0.012 C 
DOCKED: ATOM     28  CG2A3TL A 201      -1.017 -14.015  23.141 -0.28 +0.01    +0.012 C 
DOCKED: ENDBRANCH   7  26
DOCKED: ENDBRANCH   4   7
DOCKED: ENDBRANCH   2   3
DOCKED: BRANCH   2  29
DOCKED: ATOM     29  C3 A3TL A 201      -3.319 -15.496  19.374 -0.06 +0.01    +0.066 C 
DOCKED: BRANCH  29  30
DOCKED: ATOM     30  C4 A3TL A 201      -2.706 -14.657  18.286 +4.07 -0.01    -0.056 A 
DOCKED: ATOM     31  C5 A3TL A 201      -3.074 -14.873  16.955 +2.43 +0.00    +0.007 A 
DOCKED: ATOM     32  C6 A3TL A 201      -2.491 -14.093  15.958 +0.97 +0.00    +0.001 A 
DOCKED: ATOM     33  C7 A3TL A 201      -1.553 -13.115  16.291 +0.07 +0.00    +0.000 A 
DOCKED: ATOM     34  C8 A3TL A 201      -1.201 -12.899  17.619 +1.05 +0.00    +0.001 A 
DOCKED: ATOM     35  C9 A3TL A 201      -1.782 -13.669  18.622 +4.35 +0.00    +0.007 A 
DOCKED: ENDBRANCH  29  30
DOCKED: ENDBRANCH   2  29
DOCKED: ENDBRANCH   1   2
DOCKED: BRANCH   1  36
DOCKED: ATOM     36  O1 A3TL A 201      -6.513 -15.231  20.819 -0.24 +0.02    -0.391 OA
DOCKED: ATOM     37  H1 A3TL A 201      -7.006 -14.435  20.985 +0.15 +0.02    +0.210 HD
DOCKED: ENDBRANCH   1  36
DOCKED: BRANCH   1  38
DOCKED: ATOM     38  C52A3TL A 201      -6.481 -13.888  18.905 +7.52 -0.04    +0.171 C 
DOCKED: BRANCH  38  39
DOCKED: ATOM     39  C51A3TL A 201      -6.403 -13.948  17.391+18.04 -0.04    +0.120 C 
DOCKED: BRANCH  39  40
DOCKED: ATOM     40  C53A3TL A 201      -7.652 -13.193  16.947 +0.08 +0.01    +0.066 C 
DOCKED: BRANCH  40  41
DOCKED: ATOM     41  C54A3TL A 201      -8.944 -13.905  17.246 -0.33 -0.00    -0.056 A 
DOCKED: ATOM     42  C55A3TL A 201      -9.909 -13.314  18.048 +1.03 +0.00    +0.007 A 
DOCKED: ATOM     43  C56A3TL A 201     -11.100 -13.976  18.318 -0.24 -0.00    +0.001 A 
DOCKED: ATOM     44  C57A3TL A 201     -11.302 -15.231  17.771 +0.24 -0.00    +0.000 A 
DOCKED: ATOM     45  C58A3TL A 201     -10.336 -15.814  16.953 -0.22 -0.00    +0.001 A 
DOCKED: ATOM     46  C59A3TL A 201      -9.154 -15.147  16.689 -0.36 -0.00    +0.007 A 
DOCKED: ENDBRANCH  40  41
DOCKED: ENDBRANCH  39  40
DOCKED: BRANCH  39  47
DOCKED: ATOM     47  N51A3TL A 201      -6.438 -15.356  17.014 -0.03 +0.04    -0.352 N 
DOCKED: ATOM     48  C61A3TL A 201      -5.849 -16.364  17.655 -0.16 -0.02    +0.241 C 
DOCKED: ATOM     49  O52A3TL A 201      -5.077 -16.233  18.597 -0.15 +0.02    -0.271 OA
DOCKED: ATOM     50  H51A3TL A 201      -6.966 -15.593  16.174 +0.09 -0.01    +0.163 HD
DOCKED: BRANCH  48  51
DOCKED: ATOM     51  C60A3TL A 201      -6.181 -17.718  17.097 +0.22 -0.03    +0.180 C 
DOCKED: BRANCH  51  52
DOCKED: ATOM     52  N52A3TL A 201      -7.245 -17.563  16.106 +4.04 +0.21    -0.346 N 
DOCKED: ATOM     53  C69A3TL A 201      -7.076 -17.125  14.856 -0.16 -0.09    +0.240 C 
DOCKED: ATOM     54  O54A3TL A 201      -6.059 -16.577  14.463 -0.16 +0.02    -0.271 OA
DOCKED: ATOM     55  H52A3TL A 201      -8.192 -17.810  16.393 -0.25 -0.18    +0.163 HD
DOCKED: BRANCH  53  56
DOCKED: ATOM     56  C68A3TL A 201      -8.261 -17.267  13.938 -0.30 -0.17    +0.174 C 
DOCKED: ATOM     57  C70A3TL A 201      -7.894 -17.477  12.471 +1.45 -0.06    +0.042 C 
DOCKED: BRANCH  56  58
DOCKED: ATOM     58  N54A3TL A 201      -9.105 -16.092  14.048 -0.12 +0.24    -0.324 N 
DOCKED: ATOM     59  C81A3TL A 201      -8.831 -14.975  13.386 -0.09 -0.08    +0.361 C 
DOCKED: ATOM     60  O58A3TL A 201      -7.834 -14.829  12.694 -0.21 +0.00    -0.238 OA
DOCKED: ATOM     61  H54A3TL A 201      -9.929 -16.126  14.649 -0.00 -0.18    +0.165 HD
DOCKED: BRANCH  59  62
DOCKED: ATOM     62  O59A3TL A 201      -9.773 -13.880  13.538 -0.15 +0.01    -0.299 OA
DOCKED: BRANCH  62  63
DOCKED: ATOM     63  CA5A3TL A 201      -9.581 -12.656  12.828 +0.39 +0.07    +0.219 C 
DOCKED: BRANCH  63  64
DOCKED: ATOM     64  C50A3TL A 201     -10.432 -12.600  11.577 -0.08 -0.00    -0.034 A 
DOCKED: ATOM     65  C63A3TL A 201     -10.081 -13.391  10.482 -0.23 -0.00    +0.009 A 
DOCKED: ATOM     66  C64A3TL A 201     -10.857 -13.370   9.322 -0.24 -0.00    +0.001 A 
DOCKED: ATOM     67  C65A3TL A 201     -11.986 -12.558   9.252 -0.24 +0.00    +0.000 A 
DOCKED: ATOM     68  C66A3TL A 201     -12.339 -11.772  10.352 -0.24 +0.00    +0.001 A 
DOCKED: ATOM     69  C67A3TL A 201     -11.570 -11.793  11.519 -0.27 +0.00    +0.009 A 
DOCKED: ENDBRANCH  63  64
DOCKED: ENDBRANCH  62  63
DOCKED: ENDBRANCH  59  62
DOCKED: ENDBRANCH  56  58
DOCKED: ENDBRANCH  53  56
DOCKED: ENDBRANCH  51  52
DOCKED: BRANCH  51  70
DOCKED: ATOM     70  C62A3TL A 201      -4.936 -18.451  16.566 -0.36 +0.00    +0.009 C 
DOCKED: ATOM     71  CG5A3TL A 201      -5.294 -19.296  15.352 -0.23 +0.00    +0.012 C 
DOCKED: ATOM     72  CG6A3TL A 201      -3.787 -17.502  16.193 -0.29 +0.00    +0.012 C 
DOCKED: ENDBRANCH  51  70
DOCKED: ENDBRANCH  48  51
DOCKED: ENDBRANCH  39  47
DOCKED: ENDBRANCH  38  39
DOCKED: BRANCH  38  73
DOCKED: ATOM     73  O51A3TL A 201      -7.857 -13.981  19.263 -0.26 -0.03    -0.391 OA
DOCKED: ATOM     74  H51A3TL A 201      -7.986 -14.845  19.635 +0.16 +0.01    +0.210 HD
DOCKED: ENDBRANCH  38  73
DOCKED: ENDBRANCH   1  38
DOCKED: TORSDOF 27
DOCKED: TER
DOCKED: ENDMDL
________________________________________________________________________________

DPF> analysis                             # perform a ranked cluster analysis


		CLUSTER ANALYSIS OF CONFORMATIONS
		_________________________________

Number of conformations = 10

RMSD cluster analysis will be performed using the ligand atoms only (74 / 74 total atoms).

Outputting structurally similar clusters, ranked in order of increasing energy.


________________________________________________________________________________

Number of distinct conformational clusters found = 10,  out of 10 runs,
Using an rmsd-tolerance of 2.0 A


	CLUSTERING HISTOGRAM
	____________________

________________________________________________________________________________
     |           |     |           |     |                                    
Clus | Lowest    | Run | Mean      | Num | Histogram                          
-ter | Binding   |     | Binding   | in  |                                    
Rank | Energy    |     | Energy    | Clus|    5    10   15   20   25   30   35
_____|___________|_____|___________|_____|____:____|____:____|____:____|____:___
   1 |     -7.14 |   1 |     -7.14 |   1 |#
   2 |     -6.38 |   8 |     -6.38 |   1 |#
   3 |     -4.66 |   4 |     -4.66 |   1 |#
   4 |     -2.88 |   2 |     -2.88 |   1 |#
   5 |     +1.82 |   7 |     +1.82 |   1 |#
   6 |     +2.73 |   5 |     +2.73 |   1 |#
   7 |     +5.64 |   9 |     +5.64 |   1 |#
   8 |     +6.32 |   3 |     +6.32 |   1 |#
   9 |     +9.17 |   6 |     +9.17 |   1 |#
  10 |    +69.43 |  10 |    +69.43 |   1 |#
_____|___________|_____|___________|_____|______________________________________

	RMSD TABLE
	__________

_____________________________________________________________________
     |      |      |           |         |                 |
Rank | Sub- | Run  | Binding   | Cluster | Reference       | Grep
     | Rank |      | Energy    | RMSD    | RMSD            | Pattern
_____|______|______|___________|_________|_________________|___________
   1      1      1       -7.14      0.00      3.15           RANKING
   2      1      8       -6.38      0.00      3.06           RANKING
   3      1      4       -4.66      0.00      2.53           RANKING
   4      1      2       -2.88      0.00      3.03           RANKING
   5      1      7       +1.82      0.00      3.02           RANKING
   6      1      5       +2.73      0.00      2.49           RANKING
   7      1      9       +5.64      0.00      3.13           RANKING
   8      1      3       +6.32      0.00      3.38           RANKING
   9      1      6       +9.17      0.00      3.18           RANKING
  10      1     10      +69.43      0.00      2.88           RANKING
_______________________________________________________________________



	INFORMATION ENTROPY ANALYSIS FOR THIS CLUSTERING
	________________________________________________


Information entropy for this clustering = 1.00  (rmstol = 2.00 Angstrom)

_______________________________________________________________________


	STATISTICAL MECHANICAL ANALYSIS
	_______________________________


Partition function, Q =     9.88            at Temperature, T = 298.15 K
Free energy,        A ~ -1357.21 kcal/mol   at Temperature, T = 298.15 K
Internal energy,    U =     6.67 kcal/mol   at Temperature, T = 298.15 K
Entropy,            S =     4.57 kcal/mol/K at Temperature, T = 298.15 K

_______________________________________________________________________


	LOWEST ENERGY DOCKED CONFORMATION from EACH CLUSTER
	___________________________________________________



Keeping original residue number (specified in the input PDBQ file) for outputting.

MODEL        1
USER    Run = 1
USER    Cluster Rank = 1
USER    Number of conformations in this cluster = 1
USER  
USER    RMSD from reference structure       = 3.150 A
USER  
USER    Estimated Free Energy of Binding    =   -7.14 kcal/mol  [=(1)+(2)+(3)-(4)]
USER    Estimated Inhibition Constant, Ki   =    5.80 uM (micromolar)  [Temperature = 298.15 K]
USER    
USER    (1) Final Intermolecular Energy     =  -15.20 kcal/mol
USER        vdW + Hbond + desolv Energy     =  -15.06 kcal/mol
USER        Electrostatic Energy            =   -0.13 kcal/mol
USER    (2) Final Total Internal Energy     =   -7.18 kcal/mol
USER    (3) Torsional Free Energy           =   +8.05 kcal/mol
USER    (4) Unbound System's Energy  [=(2)] =   -7.18 kcal/mol
USER    
USER    
USER  
USER    DPF = dock.dpf
USER    NEWDPF move	lig2p3c.pdbqt
USER    NEWDPF about	-8.198000 -14.354000 13.542000
USER    NEWDPF tran0	-7.714940 -14.461518 12.107832
USER    NEWDPF axisangle0	-0.609590 -0.035054 -0.791941 -41.104175
USER    NEWDPF quaternion0	-0.214002 -0.012306 -0.278018 -0.936353
USER    NEWDPF dihe0	-122.53 93.77 -101.22 167.67 -46.12 0.11 -4.69 -92.00 86.50 -44.89 75.93 121.08 129.12 -17.91 -179.53 162.04 154.78 -109.44 41.75 56.07 -153.93 -115.68 -172.38 155.11 123.63 -165.26 86.04 
USER  
USER                              x       y       z    vdW   Elec        q     RMS 
ATOM      1  C2 A3TL A 201     -10.273 -15.158  12.925 -0.25 -0.09    +0.171     3.150
ATOM      2  C1 A3TL A 201     -10.171 -14.200  11.751 -0.25 -0.02    +0.120     3.150
ATOM      3  N1 A3TL A 201     -11.100 -13.105  11.915 -0.08 -0.01    -0.352     3.150
ATOM      4  C11A3TL A 201     -10.897 -12.141  12.802 -0.18 +0.05    +0.241     3.150
ATOM      5  O2 A3TL A 201      -9.905 -12.069  13.497 -0.08 -0.10    -0.271     3.150
ATOM      6  H1 A3TL A 201     -11.936 -13.072  11.331 +0.09 +0.01    +0.163     3.150
ATOM      7  C10A3TL A 201     -12.004 -11.151  12.945 -0.36 +0.04    +0.180     3.150
ATOM      8  N2 A3TL A 201     -12.381 -10.758  11.592 -0.15 -0.09    -0.346     3.150
ATOM      9  C19A3TL A 201     -11.969  -9.643  11.012 -0.25 +0.06    +0.240     3.150
ATOM     10  O4 A3TL A 201     -11.251  -8.839  11.573 -0.30 -0.05    -0.271     3.150
ATOM     11  H2 A3TL A 201     -12.995 -11.378  11.065 +0.09 +0.05    +0.163     3.150
ATOM     12  C18A3TL A 201     -12.463  -9.405   9.613 -0.23 +0.06    +0.174     3.150
ATOM     13  C20A3TL A 201     -13.988  -9.414   9.596 -0.19 +0.02    +0.042     3.150
ATOM     14  N4 A3TL A 201     -11.935 -10.395   8.691 -0.02 -0.06    -0.324     3.150
ATOM     15  C31A3TL A 201     -12.456 -11.621   8.576 -0.11 +0.05    +0.361     3.150
ATOM     16  O8 A3TL A 201     -13.448 -11.995   9.185 -0.16 -0.08    -0.238     3.150
ATOM     17  H4 A3TL A 201     -11.136 -10.146   8.109 -0.27 +0.03    +0.165     3.150
ATOM     18  O9 A3TL A 201     -11.784 -12.562   7.689 -0.19 +0.03    -0.299     3.150
ATOM     19  CA A3TL A 201     -11.770 -12.360   6.278 -0.22 -0.05    +0.219     3.150
ATOM     20  C  A3TL A 201     -12.277 -10.992   5.874 -0.23 -0.00    -0.034     3.150
ATOM     21  C13A3TL A 201     -11.353 -10.013   5.478 -0.29 +0.00    +0.009     3.150
ATOM     22  C14A3TL A 201     -11.790  -8.753   5.083 -0.28 +0.00    +0.001     3.150
ATOM     23  C15A3TL A 201     -13.157  -8.460   5.088 -0.10 +0.00    +0.000     3.150
ATOM     24  C16A3TL A 201     -14.079  -9.436   5.481 -0.09 +0.00    +0.001     3.150
ATOM     25  C17A3TL A 201     -13.635 -10.707   5.871 -0.14 +0.00    +0.009     3.150
ATOM     26  C12A3TL A 201     -13.195 -11.715  13.719 -0.48 +0.00    +0.009     3.150
ATOM     27  CG1A3TL A 201     -13.753 -13.028  13.163 -0.37 +0.00    +0.012     3.150
ATOM     28  CG2A3TL A 201     -12.878 -11.878  15.202 -0.51 +0.00    +0.012     3.150
ATOM     29  C3 A3TL A 201      -8.757 -13.638  11.633 -0.35 +0.01    +0.066     3.150
ATOM     30  C4 A3TL A 201      -8.138 -14.170  10.369 -0.35 -0.00    -0.056     3.150
ATOM     31  C5 A3TL A 201      -8.028 -13.340   9.251 -0.39 +0.00    +0.007     3.150
ATOM     32  C6 A3TL A 201      -7.460 -13.849   8.085 -0.38 +0.00    +0.001     3.150
ATOM     33  C7 A3TL A 201      -7.012 -15.171   8.042 -0.44 +0.00    +0.000     3.150
ATOM     34  C8 A3TL A 201      -7.115 -15.986   9.164 -0.47 +0.00    +0.001     3.150
ATOM     35  C9 A3TL A 201      -7.676 -15.484  10.334 -0.39 -0.00    +0.007     3.150
ATOM     36  O1 A3TL A 201     -11.578 -15.692  12.891 -0.17 +0.35    -0.391     3.150
ATOM     37  H1 A3TL A 201     -11.679 -16.101  12.039 -0.11 -0.23    +0.210     3.150
ATOM     38  C52A3TL A 201      -9.334 -16.349  12.864 -0.30 -0.16    +0.171     3.150
ATOM     39  C51A3TL A 201      -9.093 -17.071  14.176 -0.39 -0.14    +0.120     3.150
ATOM     40  C53A3TL A 201     -10.151 -16.478  15.101 +0.79 -0.10    +0.066     3.150
ATOM     41  C54A3TL A 201      -9.647 -15.372  15.989 -0.31 +0.03    -0.056     3.150
ATOM     42  C55A3TL A 201      -9.247 -14.158  15.451 -0.33 -0.00    +0.007     3.150
ATOM     43  C56A3TL A 201      -8.785 -13.141  16.277 +0.10 +0.00    +0.001     3.150
ATOM     44  C57A3TL A 201      -8.733 -13.364  17.641 -0.20 +0.00    +0.000     3.150
ATOM     45  C58A3TL A 201      -9.151 -14.581  18.179 -0.44 -0.00    +0.001     3.150
ATOM     46  C59A3TL A 201      -9.611 -15.587  17.349 -0.39 -0.00    +0.007     3.150
ATOM     47  N51A3TL A 201      -7.736 -16.750  14.602 -0.09 +0.18    -0.352     3.150
ATOM     48  C61A3TL A 201      -7.083 -15.610  14.378 -0.19 -0.02    +0.241     3.150
ATOM     49  O52A3TL A 201      -7.491 -14.705  13.662 -0.25 -0.02    -0.271     3.150
ATOM     50  H51A3TL A 201      -7.236 -17.470  15.123 -0.10 -0.09    +0.163     3.150
ATOM     51  C60A3TL A 201      -5.748 -15.530  15.060 -0.18 +0.02    +0.180     3.150
ATOM     52  N52A3TL A 201      -5.800 -16.336  16.279 -0.08 +0.01    -0.346     3.150
ATOM     53  C69A3TL A 201      -6.398 -15.974  17.417 -0.16 -0.03    +0.240     3.150
ATOM     54  O54A3TL A 201      -6.766 -14.836  17.656 -0.10 +0.04    -0.271     3.150
ATOM     55  H52A3TL A 201      -5.342 -17.247  16.258 +0.09 +0.00    +0.163     3.150
ATOM     56  C68A3TL A 201      -6.532 -17.048  18.465 -0.31 -0.02    +0.174     3.150
ATOM     57  C70A3TL A 201      -6.161 -16.594  19.875 -0.43 -0.01    +0.042     3.150
ATOM     58  N54A3TL A 201      -5.707 -18.185  18.105 -0.19 +0.03    -0.324     3.150
ATOM     59  C81A3TL A 201      -4.385 -18.088  18.023 -0.15 +0.08    +0.361     3.150
ATOM     60  O58A3TL A 201      -3.776 -17.040  18.182 -0.15 -0.05    -0.238     3.150
ATOM     61  H54A3TL A 201      -6.154 -19.081  17.909 -0.18 -0.04    +0.165     3.150
ATOM     62  O59A3TL A 201      -3.662 -19.304  17.700 -0.26 -0.24    -0.299     3.150
ATOM     63  CA5A3TL A 201      -2.372 -19.239  17.091 -0.13 +0.21    +0.219     3.150
ATOM     64  C50A3TL A 201      -1.526 -18.139  17.696 -0.19 -0.02    -0.034     3.150
ATOM     65  C63A3TL A 201      -1.198 -18.205  19.051 -0.09 +0.01    +0.009     3.150
ATOM     66  C64A3TL A 201      -0.406 -17.212  19.631 -0.10 +0.00    +0.001     3.150
ATOM     67  C65A3TL A 201       0.060 -16.151  18.859 -0.12 +0.00    +0.000     3.150
ATOM     68  C66A3TL A 201      -0.263 -16.092  17.502 -0.19 +0.00    +0.001     3.150
ATOM     69  C67A3TL A 201      -1.051 -17.086  16.913 -0.21 +0.00    +0.009     3.150
ATOM     70  C62A3TL A 201      -4.588 -15.899  14.117 -0.43 +0.00    +0.009     3.150
ATOM     71  CG5A3TL A 201      -3.786 -17.059  14.690 -0.40 +0.00    +0.012     3.150
ATOM     72  CG6A3TL A 201      -5.053 -16.264  12.700 -0.49 +0.00    +0.012     3.150
ATOM     73  O51A3TL A 201      -9.919 -17.288  11.965 +0.45 +0.76    -0.391     3.150
ATOM     74  H51A3TL A 201     -10.521 -17.817  12.475 -0.31 -0.54    +0.210     3.150
TER
ENDMDL
MODEL        8
USER    Run = 8
USER    Cluster Rank = 2
USER    Number of conformations in this cluster = 1
USER  
USER    RMSD from reference structure       = 3.057 A
USER  
USER    Estimated Free Energy of Binding    =   -6.38 kcal/mol  [=(1)+(2)+(3)-(4)]
USER    Estimated Inhibition Constant, Ki   =   20.95 uM (micromolar)  [Temperature = 298.15 K]
USER    
USER    (1) Final Intermolecular Energy     =  -14.44 kcal/mol
USER        vdW + Hbond + desolv Energy     =  -14.44 kcal/mol
USER        Electrostatic Energy            =   +0.00 kcal/mol
USER    (2) Final Total Internal Energy     =   -2.18 kcal/mol
USER    (3) Torsional Free Energy           =   +8.05 kcal/mol
USER    (4) Unbound System's Energy  [=(2)] =   -2.18 kcal/mol
USER    
USER    
USER  
USER    DPF = dock.dpf
USER    NEWDPF move	lig2p3c.pdbqt
USER    NEWDPF about	-8.198000 -14.354000 13.542000
USER    NEWDPF tran0	-9.142918 -16.509506 14.510660
USER    NEWDPF axisangle0	-0.837890 0.545708 -0.011940 177.982155
USER    NEWDPF quaternion0	-0.837760 0.545624 -0.011938 0.017608
USER    NEWDPF dihe0	46.88 180.00 -82.18 144.00 -76.11 -79.54 -144.12 37.82 -15.06 -43.05 176.63 -25.44 26.93 24.36 45.34 -173.66 92.19 155.50 -101.70 171.77 104.61 119.23 47.05 -12.95 -11.56 98.84 88.96 
USER  
USER                              x       y       z    vdW   Elec        q     RMS 
ATOM      1  C2 A3TL A 201      -7.820 -14.092  14.196 -0.31 +0.03    +0.171     3.057
ATOM      2  C1 A3TL A 201      -9.185 -14.039  14.859 -0.31 -0.00    +0.120     3.057
ATOM      3  N1 A3TL A 201      -9.053 -14.184  16.291 -0.13 +0.02    -0.352     3.057
ATOM      4  C11A3TL A 201      -8.648 -15.317  16.845 -0.24 -0.05    +0.241     3.057
ATOM      5  O2 A3TL A 201      -8.306 -16.291  16.207 -0.21 +0.11    -0.271     3.057
ATOM      6  H1 A3TL A 201      -9.277 -13.391  16.892 +0.10 +0.01    +0.163     3.057
ATOM      7  C10A3TL A 201      -8.684 -15.356  18.337 -0.33 -0.01    +0.180     3.057
ATOM      8  N2 A3TL A 201      -7.596 -16.233  18.751 -0.16 +0.02    -0.346     3.057
ATOM      9  C19A3TL A 201      -6.565 -15.831  19.475 -0.28 -0.02    +0.240     3.057
ATOM     10  O4 A3TL A 201      -6.432 -14.680  19.843 -0.31 +0.01    -0.271     3.057
ATOM     11  H2 A3TL A 201      -7.632 -17.212  18.467 +0.03 -0.01    +0.163     3.057
ATOM     12  C18A3TL A 201      -5.539 -16.878  19.805 -0.27 -0.04    +0.174     3.057
ATOM     13  C20A3TL A 201      -6.018 -18.240  19.315 +0.35 -0.02    +0.042     3.057
ATOM     14  N4 A3TL A 201      -5.260 -16.915  21.229 +0.11 +0.22    -0.324     3.057
ATOM     15  C31A3TL A 201      -4.878 -15.834  21.917 -0.20 -0.05    +0.361     3.057
ATOM     16  O8 A3TL A 201      -4.787 -14.717  21.427 -0.71 -0.07    -0.238     3.057
ATOM     17  H4 A3TL A 201      -5.360 -17.801  21.725 -0.22 -0.33    +0.165     3.057
ATOM     18  O9 A3TL A 201      -4.532 -16.012  23.321 -0.23 +0.01    -0.299     3.057
ATOM     19  CA A3TL A 201      -4.322 -14.890  24.175 -0.14 +0.16    +0.219     3.057
ATOM     20  C  A3TL A 201      -2.877 -14.440  24.210 -0.28 -0.02    -0.034     3.057
ATOM     21  C13A3TL A 201      -2.349 -13.756  23.104 -0.35 +0.00    +0.009     3.057
ATOM     22  C14A3TL A 201      -1.031 -13.313  23.115 -0.23 +0.00    +0.001     3.057
ATOM     23  C15A3TL A 201      -0.227 -13.558  24.231 -0.19 +0.00    +0.000     3.057
ATOM     24  C16A3TL A 201      -0.751 -14.239  25.335 -0.13 +0.00    +0.001     3.057
ATOM     25  C17A3TL A 201      -2.084 -14.677  25.323 -0.19 +0.01    +0.009     3.057
ATOM     26  C12A3TL A 201      -8.555 -13.967  18.960 -0.56 +0.00    +0.009     3.057
ATOM     27  CG1A3TL A 201      -7.636 -13.009  18.198 -0.28 +0.00    +0.012     3.057
ATOM     28  CG2A3TL A 201      -9.917 -13.314  19.171 -0.25 +0.00    +0.012     3.057
ATOM     29  C3 A3TL A 201      -9.882 -12.715  14.556 -0.34 +0.01    +0.066     3.057
ATOM     30  C4 A3TL A 201     -11.103 -13.001  13.723 -0.31 -0.00    -0.056     3.057
ATOM     31  C5 A3TL A 201     -11.700 -14.263  13.782 -0.33 -0.00    +0.007     3.057
ATOM     32  C6 A3TL A 201     -12.824 -14.515  12.999 -0.35 -0.00    +0.001     3.057
ATOM     33  C7 A3TL A 201     -13.339 -13.518  12.168 -0.33 +0.00    +0.000     3.057
ATOM     34  C8 A3TL A 201     -12.745 -12.261  12.125 -0.30 +0.00    +0.001     3.057
ATOM     35  C9 A3TL A 201     -11.625 -11.999  12.908 -0.35 +0.00    +0.007     3.057
ATOM     36  O1 A3TL A 201      -7.172 -12.881  14.519 -0.81 -0.25    -0.391     3.057
ATOM     37  H1 A3TL A 201      -6.804 -12.548  13.708 +0.12 +0.21    +0.210     3.057
ATOM     38  C52A3TL A 201      -6.907 -15.197  14.695 -0.25 +0.01    +0.171     3.057
ATOM     39  C51A3TL A 201      -5.705 -15.508  13.823 -0.32 +0.02    +0.120     3.057
ATOM     40  C53A3TL A 201      -6.265 -16.477  12.787 -0.36 -0.01    +0.066     3.057
ATOM     41  C54A3TL A 201      -7.744 -16.731  12.915 -0.27 +0.04    -0.056     3.057
ATOM     42  C55A3TL A 201      -8.244 -17.496  13.958 -0.35 -0.01    +0.007     3.057
ATOM     43  C56A3TL A 201      -9.609 -17.724  14.071 -0.37 -0.00    +0.001     3.057
ATOM     44  C57A3TL A 201     -10.456 -17.173  13.125 -0.36 -0.00    +0.000     3.057
ATOM     45  C58A3TL A 201      -9.950 -16.392  12.087 -0.35 -0.00    +0.001     3.057
ATOM     46  C59A3TL A 201      -8.589 -16.169  11.984 -0.31 -0.00    +0.007     3.057
ATOM     47  N51A3TL A 201      -4.700 -16.126  14.680 -0.12 -0.06    -0.352     3.057
ATOM     48  C61A3TL A 201      -3.395 -15.856  14.694 -0.31 +0.06    +0.241     3.057
ATOM     49  O52A3TL A 201      -2.827 -15.130  13.889 -0.36 -0.07    -0.271     3.057
ATOM     50  H51A3TL A 201      -5.029 -16.836  15.334 +0.10 +0.01    +0.163     3.057
ATOM     51  C60A3TL A 201      -2.640 -16.560  15.784 -0.26 +0.06    +0.180     3.057
ATOM     52  N52A3TL A 201      -1.449 -15.776  16.106 -0.12 -0.11    -0.346     3.057
ATOM     53  C69A3TL A 201      -1.397 -14.442  16.163 -0.27 +0.06    +0.240     3.057
ATOM     54  O54A3TL A 201      -2.269 -13.712  15.724 +0.06 -0.04    -0.271     3.057
ATOM     55  H52A3TL A 201      -0.589 -16.288  16.303 +0.06 +0.06    +0.163     3.057
ATOM     56  C68A3TL A 201      -0.136 -13.854  16.740 -0.32 +0.05    +0.174     3.057
ATOM     57  C70A3TL A 201       1.141 -14.573  16.312 -0.05 +0.01    +0.042     3.057
ATOM     58  N54A3TL A 201      -0.216 -13.857  18.188 -0.05 -0.12    -0.324     3.057
ATOM     59  C81A3TL A 201       0.175 -14.905  18.903 -0.10 +0.14    +0.361     3.057
ATOM     60  O58A3TL A 201       0.565 -15.952  18.408 -0.08 -0.10    -0.238     3.057
ATOM     61  H54A3TL A 201      -0.580 -13.034  18.668 +0.20 +0.07    +0.165     3.057
ATOM     62  O59A3TL A 201       0.092 -14.775  20.347 -0.12 -0.12    -0.299     3.057
ATOM     63  CA5A3TL A 201       0.820 -15.662  21.196 -0.06 +0.10    +0.219     3.057
ATOM     64  C50A3TL A 201      -0.091 -16.681  21.847 -0.05 -0.02    -0.034     3.057
ATOM     65  C63A3TL A 201       0.405 -17.464  22.891 -0.01 +0.01    +0.009     3.057
ATOM     66  C64A3TL A 201      -0.419 -18.400  23.519 -0.03 +0.00    +0.001     3.057
ATOM     67  C65A3TL A 201      -1.739 -18.557  23.106 -0.09 +0.00    +0.000     3.057
ATOM     68  C66A3TL A 201      -2.234 -17.768  22.066 -0.07 +0.00    +0.001     3.057
ATOM     69  C67A3TL A 201      -1.417 -16.824  21.436 -0.11 +0.00    +0.009     3.057
ATOM     70  C62A3TL A 201      -3.530 -16.872  17.002 -0.28 +0.00    +0.009     3.057
ATOM     71  CG5A3TL A 201      -2.721 -16.781  18.288 -0.25 +0.00    +0.012     3.057
ATOM     72  CG6A3TL A 201      -4.750 -15.946  17.113 +0.17 -0.00    +0.012     3.057
ATOM     73  O51A3TL A 201      -6.413 -14.780  15.965 -0.09 -0.03    -0.391     3.057
ATOM     74  H51A3TL A 201      -6.793 -13.929  16.141 +0.03 +0.03    +0.210     3.057
TER
ENDMDL
MODEL        4
USER    Run = 4
USER    Cluster Rank = 3
USER    Number of conformations in this cluster = 1
USER  
USER    RMSD from reference structure       = 2.534 A
USER  
USER    Estimated Free Energy of Binding    =   -4.66 kcal/mol  [=(1)+(2)+(3)-(4)]
USER    Estimated Inhibition Constant, Ki   =  386.63 uM (micromolar)  [Temperature = 298.15 K]
USER    
USER    (1) Final Intermolecular Energy     =  -12.71 kcal/mol
USER        vdW + Hbond + desolv Energy     =  -13.11 kcal/mol
USER        Electrostatic Energy            =   +0.40 kcal/mol
USER    (2) Final Total Internal Energy     =   -2.11 kcal/mol
USER    (3) Torsional Free Energy           =   +8.05 kcal/mol
USER    (4) Unbound System's Energy  [=(2)] =   -2.11 kcal/mol
USER    
USER    
USER  
USER    DPF = dock.dpf
USER    NEWDPF move	lig2p3c.pdbqt
USER    NEWDPF about	-8.198000 -14.354000 13.542000
USER    NEWDPF tran0	-7.701840 -13.508487 13.902884
USER    NEWDPF axisangle0	-0.586798 0.733655 -0.342664 -22.025268
USER    NEWDPF quaternion0	-0.112093 0.140147 -0.065458 -0.981585
USER    NEWDPF dihe0	92.27 160.85 46.53 -155.82 -88.30 37.15 133.44 -48.02 14.03 16.30 112.11 146.03 158.03 -142.95 -175.58 32.57 -177.86 -35.93 -172.96 -43.52 156.16 -176.13 -166.43 146.61 -40.50 169.69 100.90 
USER  
USER                              x       y       z    vdW   Elec        q     RMS 
ATOM      1  C2 A3TL A 201      -9.459 -15.314  15.064 -0.24 -0.09    +0.171     2.534
ATOM      2  C1 A3TL A 201     -10.079 -14.160  14.295 -0.28 -0.02    +0.120     2.534
ATOM      3  N1 A3TL A 201      -9.668 -14.203  12.910 -0.06 +0.04    -0.352     2.534
ATOM      4  C11A3TL A 201     -10.230 -15.029  12.039 -0.19 -0.10    +0.241     2.534
ATOM      5  O2 A3TL A 201     -11.156 -15.764  12.313 -0.11 +0.23    -0.271     2.534
ATOM      6  H1 A3TL A 201      -8.926 -13.579  12.593 +0.09 +0.02    +0.163     2.534
ATOM      7  C10A3TL A 201      -9.614 -15.050  10.679 -0.26 -0.04    +0.180     2.534
ATOM      8  N2 A3TL A 201     -10.423 -14.166   9.849 -0.11 +0.04    -0.346     2.534
ATOM      9  C19A3TL A 201     -10.822 -12.964  10.231 -0.05 -0.02    +0.240     2.534
ATOM     10  O4 A3TL A 201     -10.558 -12.503  11.324 -0.18 -0.02    -0.271     2.534
ATOM     11  H2 A3TL A 201     -10.696 -14.493   8.923 +0.10 -0.01    +0.163     2.534
ATOM     12  C18A3TL A 201     -11.652 -12.197   9.241 -0.00 -0.00    +0.174     2.534
ATOM     13  C20A3TL A 201     -13.114 -12.611   9.365 -0.29 +0.01    +0.042     2.534
ATOM     14  N4 A3TL A 201     -11.176 -12.400   7.884 -0.08 +0.03    -0.324     2.534
ATOM     15  C31A3TL A 201     -11.543 -13.449   7.141 -0.19 -0.09    +0.361     2.534
ATOM     16  O8 A3TL A 201     -12.348 -14.292   7.512 -0.74 +0.08    -0.238     2.534
ATOM     17  H4 A3TL A 201     -10.537 -11.715   7.481 -0.39 -0.01    +0.165     2.534
ATOM     18  O9 A3TL A 201     -10.926 -13.599   5.830 -0.33 +0.13    -0.299     2.534
ATOM     19  CA A3TL A 201     -10.670 -12.466   5.004 -0.24 -0.06    +0.219     2.534
ATOM     20  C  A3TL A 201     -11.932 -11.725   4.616 -0.27 +0.00    -0.034     2.534
ATOM     21  C13A3TL A 201     -12.722 -11.150   5.623 -0.19 +0.00    +0.009     2.534
ATOM     22  C14A3TL A 201     -13.876 -10.446   5.296 -0.12 +0.00    +0.001     2.534
ATOM     23  C15A3TL A 201     -14.254 -10.319   3.956 -0.08 +0.00    +0.000     2.534
ATOM     24  C16A3TL A 201     -13.467 -10.890   2.951 -0.12 +0.00    +0.001     2.534
ATOM     25  C17A3TL A 201     -12.300 -11.592   3.284 -0.25 +0.00    +0.009     2.534
ATOM     26  C12A3TL A 201      -8.148 -14.621  10.696 -0.41 -0.00    +0.009     2.534
ATOM     27  CG1A3TL A 201      -7.146 -15.773  10.810 -0.44 -0.00    +0.012     2.534
ATOM     28  CG2A3TL A 201      -7.800 -13.755   9.489 -0.50 +0.00    +0.012     2.534
ATOM     29  C3 A3TL A 201     -11.602 -14.221  14.364 -0.33 -0.02    +0.066     2.534
ATOM     30  C4 A3TL A 201     -12.156 -12.980  13.718 -0.32 -0.00    -0.056     2.534
ATOM     31  C5 A3TL A 201     -13.302 -13.067  12.924 -0.35 +0.00    +0.007     2.534
ATOM     32  C6 A3TL A 201     -13.799 -11.910  12.327 -0.03 +0.00    +0.001     2.534
ATOM     33  C7 A3TL A 201     -13.154 -10.687  12.521 -0.36 +0.00    +0.000     2.534
ATOM     34  C8 A3TL A 201     -12.020 -10.608  13.322 -0.48 +0.00    +0.001     2.534
ATOM     35  C9 A3TL A 201     -11.521 -11.757  13.928 -0.46 +0.00    +0.007     2.534
ATOM     36  O1 A3TL A 201     -10.464 -16.296  15.187 +0.79 +0.70    -0.391     2.534
ATOM     37  H1 A3TL A 201     -10.951 -16.085  15.977 -0.37 -0.43    +0.210     2.534
ATOM     38  C52A3TL A 201      -8.295 -15.996  14.368 -0.23 -0.07    +0.171     2.534
ATOM     39  C51A3TL A 201      -7.607 -17.097  15.153 -0.09 -0.06    +0.120     2.534
ATOM     40  C53A3TL A 201      -8.138 -16.902  16.570 +0.45 -0.03    +0.066     2.534
ATOM     41  C54A3TL A 201      -7.793 -15.570  17.181 -0.29 +0.01    -0.056     2.534
ATOM     42  C55A3TL A 201      -7.725 -15.418  18.557 -0.37 -0.00    +0.007     2.534
ATOM     43  C56A3TL A 201      -7.403 -14.186  19.114 -0.45 +0.00    +0.001     2.534
ATOM     44  C57A3TL A 201      -7.153 -13.119  18.268 +0.14 +0.00    +0.000     2.534
ATOM     45  C58A3TL A 201      -7.208 -13.281  16.885 +0.15 +0.00    +0.001     2.534
ATOM     46  C59A3TL A 201      -7.527 -14.511  16.340 -0.35 +0.00    +0.007     2.534
ATOM     47  N51A3TL A 201      -6.171 -16.862  15.057 -0.07 +0.04    -0.352     2.534
ATOM     48  C61A3TL A 201      -5.573 -15.698  14.806 -0.19 +0.03    +0.241     2.534
ATOM     49  O52A3TL A 201      -6.157 -14.670  14.490 -0.12 -0.08    -0.271     2.534
ATOM     50  H51A3TL A 201      -5.564 -17.669  15.196 +0.09 -0.00    +0.163     2.534
ATOM     51  C60A3TL A 201      -4.076 -15.750  14.906 -0.27 +0.04    +0.180     2.534
ATOM     52  N52A3TL A 201      -3.691 -15.448  16.284 -0.05 -0.04    -0.346     2.534
ATOM     53  C69A3TL A 201      -2.435 -15.334  16.726 -0.20 +0.06    +0.240     2.534
ATOM     54  O54A3TL A 201      -1.460 -15.699  16.092 -0.21 -0.09    -0.271     2.534
ATOM     55  H52A3TL A 201      -4.441 -15.315  16.962 -0.34 -0.03    +0.163     2.534
ATOM     56  C68A3TL A 201      -2.272 -14.790  18.120 +0.20 +0.05    +0.174     2.534
ATOM     57  C70A3TL A 201      -0.957 -14.047  18.350 -0.27 +0.02    +0.042     2.534
ATOM     58  N54A3TL A 201      -2.374 -15.872  19.080 -0.10 -0.10    -0.324     2.534
ATOM     59  C81A3TL A 201      -3.510 -16.537  19.258 -0.11 +0.06    +0.361     2.534
ATOM     60  O58A3TL A 201      -4.552 -16.258  18.685 -0.17 +0.01    -0.238     2.534
ATOM     61  H54A3TL A 201      -1.555 -16.127  19.632 +0.06 +0.07    +0.165     2.534
ATOM     62  O59A3TL A 201      -3.479 -17.631  20.213 -0.11 +0.02    -0.299     2.534
ATOM     63  CA5A3TL A 201      -2.599 -17.588  21.336 +0.12 +0.05    +0.219     2.534
ATOM     64  C50A3TL A 201      -2.975 -16.478  22.295 -0.17 -0.01    -0.034     2.534
ATOM     65  C63A3TL A 201      -3.591 -16.806  23.503 -0.21 +0.00    +0.009     2.534
ATOM     66  C64A3TL A 201      -3.934 -15.803  24.412 -0.11 +0.00    +0.001     2.534
ATOM     67  C65A3TL A 201      -3.662 -14.470  24.116 -0.32 +0.00    +0.000     2.534
ATOM     68  C66A3TL A 201      -3.039 -14.145  22.910 -0.37 +0.00    +0.001     2.534
ATOM     69  C67A3TL A 201      -2.687 -15.145  21.997 -0.28 +0.00    +0.009     2.534
ATOM     70  C62A3TL A 201      -3.502 -17.077  14.375 -0.44 +0.00    +0.009     2.534
ATOM     71  CG5A3TL A 201      -3.502 -18.133  15.471 -0.20 +0.00    +0.012     2.534
ATOM     72  CG6A3TL A 201      -4.263 -17.621  13.156 -0.38 +0.00    +0.012     2.534
ATOM     73  O51A3TL A 201      -8.814 -16.585  13.179 -0.13 +0.37    -0.391     2.534
ATOM     74  H51A3TL A 201      -9.754 -16.653  13.294 +0.12 -0.27    +0.210     2.534
TER
ENDMDL
MODEL        2
USER    Run = 2
USER    Cluster Rank = 4
USER    Number of conformations in this cluster = 1
USER  
USER    RMSD from reference structure       = 3.030 A
USER  
USER    Estimated Free Energy of Binding    =   -2.88 kcal/mol  [=(1)+(2)+(3)-(4)]
USER    Estimated Inhibition Constant, Ki   =    7.78 mM (millimolar)  [Temperature = 298.15 K]
USER    
USER    (1) Final Intermolecular Energy     =  -10.93 kcal/mol
USER        vdW + Hbond + desolv Energy     =  -11.33 kcal/mol
USER        Electrostatic Energy            =   +0.39 kcal/mol
USER    (2) Final Total Internal Energy     =   -0.52 kcal/mol
USER    (3) Torsional Free Energy           =   +8.05 kcal/mol
USER    (4) Unbound System's Energy  [=(2)] =   -0.52 kcal/mol
USER    
USER    
USER  
USER    DPF = dock.dpf
USER    NEWDPF move	lig2p3c.pdbqt
USER    NEWDPF about	-8.198000 -14.354000 13.542000
USER    NEWDPF tran0	-6.364701 -14.118350 14.908736
USER    NEWDPF axisangle0	0.586722 0.773107 -0.240964 -132.932060
USER    NEWDPF quaternion0	0.537920 0.708802 -0.220921 -0.399293
USER    NEWDPF dihe0	-12.60 -179.96 88.45 -175.74 142.52 -33.42 -180.00 178.08 179.93 -92.74 -155.93 27.44 -98.68 21.46 57.86 -170.60 -21.62 50.69 179.97 73.20 69.27 -164.90 -13.83 174.17 -137.70 -12.74 -1.31 
USER  
USER                              x       y       z    vdW   Elec        q     RMS 
ATOM      1  C2 A3TL A 201      -8.180 -15.975  15.885 -0.24 -0.06    +0.171     3.030
ATOM      2  C1 A3TL A 201      -7.178 -15.416  16.879 -0.28 -0.01    +0.120     3.030
ATOM      3  N1 A3TL A 201      -5.899 -15.206  16.238 -0.00 +0.00    -0.352     3.030
ATOM      4  C11A3TL A 201      -4.774 -15.688  16.746 +0.77 -0.01    +0.241     3.030
ATOM      5  O2 A3TL A 201      -4.731 -16.380  17.741 -0.15 +0.00    -0.271     3.030
ATOM      6  H1 A3TL A 201      -5.862 -14.672  15.370 +0.05 +0.04    +0.163     3.030
ATOM      7  C10A3TL A 201      -3.521 -15.281  16.043 +0.01 +0.03    +0.180     3.030
ATOM      8  N2 A3TL A 201      -2.418 -15.833  16.819 -0.12 -0.10    -0.346     3.030
ATOM      9  C19A3TL A 201      -2.447 -17.028  17.386 -0.14 +0.10    +0.240     3.030
ATOM     10  O4 A3TL A 201      -3.413 -17.761  17.320 -0.13 -0.11    -0.271     3.030
ATOM     11  H2 A3TL A 201      -1.577 -15.267  16.930 +0.08 +0.05    +0.163     3.030
ATOM     12  C18A3TL A 201      -1.215 -17.428  18.148 -0.13 +0.10    +0.174     3.030
ATOM     13  C20A3TL A 201      -0.614 -18.686  17.531 -0.21 +0.04    +0.042     3.030
ATOM     14  N4 A3TL A 201      -1.510 -17.639  19.555 -0.05 -0.23    -0.324     3.030
ATOM     15  C31A3TL A 201      -2.304 -16.822  20.255 -0.07 +0.14    +0.361     3.030
ATOM     16  O8 A3TL A 201      -2.894 -15.870  19.766 -0.21 -0.06    -0.238     3.030
ATOM     17  H4 A3TL A 201      -1.095 -18.442  20.027 +0.03 +0.20    +0.165     3.030
ATOM     18  O9 A3TL A 201      -2.449 -17.078  21.682 -0.09 -0.08    -0.299     3.030
ATOM     19  CA A3TL A 201      -1.337 -16.960  22.566 -0.04 +0.11    +0.219     3.030
ATOM     20  C  A3TL A 201      -1.377 -15.694  23.395 -0.09 -0.02    -0.034     3.030
ATOM     21  C13A3TL A 201      -1.220 -14.455  22.756 -0.23 +0.00    +0.009     3.030
ATOM     22  C14A3TL A 201      -1.271 -13.274  23.488 -0.31 +0.00    +0.001     3.030
ATOM     23  C15A3TL A 201      -1.474 -13.324  24.870 -0.20 +0.00    +0.000     3.030
ATOM     24  C16A3TL A 201      -1.632 -14.558  25.509 -0.17 +0.00    +0.001     3.030
ATOM     25  C17A3TL A 201      -1.588 -15.746  24.766 -0.09 +0.01    +0.009     3.030
ATOM     26  C12A3TL A 201      -3.485 -15.759  14.592 -0.46 +0.00    +0.009     3.030
ATOM     27  CG1A3TL A 201      -3.006 -14.709  13.586 +0.05 +0.00    +0.012     3.030
ATOM     28  CG2A3TL A 201      -2.659 -17.033  14.440 -0.31 +0.00    +0.012     3.030
ATOM     29  C3 A3TL A 201      -7.668 -14.090  17.454 -0.40 +0.00    +0.066     3.030
ATOM     30  C4 A3TL A 201      -8.918 -14.352  18.252 -0.40 -0.00    -0.056     3.030
ATOM     31  C5 A3TL A 201      -8.832 -15.042  19.463 -0.49 +0.00    +0.007     3.030
ATOM     32  C6 A3TL A 201      -9.999 -15.283  20.186 -0.55 +0.00    +0.001     3.030
ATOM     33  C7 A3TL A 201     -11.231 -14.841  19.699 -0.10 -0.00    +0.000     3.030
ATOM     34  C8 A3TL A 201     -11.304 -14.145  18.498 -0.06 -0.00    +0.001     3.030
ATOM     35  C9 A3TL A 201     -10.144 -13.895  17.772 -0.30 -0.00    +0.007     3.030
ATOM     36  O1 A3TL A 201      -9.228 -16.533  16.647 -0.19 +0.26    -0.391     3.030
ATOM     37  H1 A3TL A 201      -9.940 -16.703  16.041 -0.16 -0.29    +0.210     3.030
ATOM     38  C52A3TL A 201      -8.828 -14.943  14.980 -0.23 -0.04    +0.171     3.030
ATOM     39  C51A3TL A 201      -7.953 -14.391  13.871 -0.31 +0.01    +0.120     3.030
ATOM     40  C53A3TL A 201      -8.956 -13.740  12.923 -0.34 +0.01    +0.066     3.030
ATOM     41  C54A3TL A 201     -10.188 -13.202  13.602 -0.29 -0.00    -0.056     3.030
ATOM     42  C55A3TL A 201     -11.413 -13.834  13.452 -0.31 -0.00    +0.007     3.030
ATOM     43  C56A3TL A 201     -12.544 -13.333  14.084 -0.19 -0.00    +0.001     3.030
ATOM     44  C57A3TL A 201     -12.422 -12.196  14.863 -0.47 +0.00    +0.000     3.030
ATOM     45  C58A3TL A 201     -11.185 -11.574  15.024 +0.08 +0.00    +0.001     3.030
ATOM     46  C59A3TL A 201     -10.064 -12.081  14.393 +0.17 +0.00    +0.007     3.030
ATOM     47  N51A3TL A 201      -7.262 -15.521  13.263 -0.08 +0.04    -0.352     3.030
ATOM     48  C61A3TL A 201      -7.821 -16.647  12.819 -0.21 -0.16    +0.241     3.030
ATOM     49  O52A3TL A 201      -8.997 -16.948  12.977 -0.23 +0.35    -0.271     3.030
ATOM     50  H51A3TL A 201      -6.250 -15.444  13.169 +0.10 +0.01    +0.163     3.030
ATOM     51  C60A3TL A 201      -6.863 -17.567  12.120 +0.61 -0.13    +0.180     3.030
ATOM     52  N52A3TL A 201      -6.637 -17.063  10.767 +0.17 +0.11    -0.346     3.030
ATOM     53  C69A3TL A 201      -7.585 -16.889   9.841 -0.26 -0.08    +0.240     3.030
ATOM     54  O54A3TL A 201      -8.710 -17.351   9.931 +0.29 +0.22    -0.271     3.030
ATOM     55  H52A3TL A 201      -5.680 -16.825  10.508 +0.13 -0.00    +0.163     3.030
ATOM     56  C68A3TL A 201      -7.169 -16.142   8.601 -0.44 +0.01    +0.174     3.030
ATOM     57  C70A3TL A 201      -6.784 -14.685   8.851 -0.00 +0.01    +0.042     3.030
ATOM     58  N54A3TL A 201      -8.241 -16.185   7.625 -0.27 -0.01    -0.324     3.030
ATOM     59  C81A3TL A 201      -9.177 -15.244   7.579 -0.28 +0.02    +0.361     3.030
ATOM     60  O58A3TL A 201      -9.244 -14.320   8.376 -0.26 -0.00    -0.238     3.030
ATOM     61  H54A3TL A 201      -8.277 -16.956   6.959 -0.05 -0.01    +0.165     3.030
ATOM     62  O59A3TL A 201     -10.172 -15.367   6.528 -0.85 -0.02    -0.299     3.030
ATOM     63  CA5A3TL A 201     -11.015 -14.264   6.197 -0.37 -0.07    +0.219     3.030
ATOM     64  C50A3TL A 201     -11.712 -13.709   7.420 -0.34 +0.01    -0.034     3.030
ATOM     65  C63A3TL A 201     -11.973 -14.559   8.496 -0.34 -0.00    +0.009     3.030
ATOM     66  C64A3TL A 201     -12.601 -14.069   9.642 -0.26 -0.00    +0.001     3.030
ATOM     67  C65A3TL A 201     -12.969 -12.729   9.719 -0.26 +0.00    +0.000     3.030
ATOM     68  C66A3TL A 201     -12.699 -11.878   8.644 -0.25 +0.00    +0.001     3.030
ATOM     69  C67A3TL A 201     -12.066 -12.360   7.495 -0.28 -0.00    +0.009     3.030
ATOM     70  C62A3TL A 201      -5.570 -17.785  12.928 +0.62 -0.00    +0.009     3.030
ATOM     71  CG5A3TL A 201      -4.414 -17.022  12.297 -0.39 +0.00    +0.012     3.030
ATOM     72  CG6A3TL A 201      -5.699 -17.369  14.401 -0.36 -0.00    +0.012     3.030
ATOM     73  O51A3TL A 201      -9.943 -15.581  14.361 -0.11 +0.30    -0.391     3.030
ATOM     74  H51A3TL A 201      -9.967 -16.471  14.690 -0.06 -0.29    +0.210     3.030
TER
ENDMDL
MODEL        7
USER    Run = 7
USER    Cluster Rank = 5
USER    Number of conformations in this cluster = 1
USER  
USER    RMSD from reference structure       = 3.015 A
USER  
USER    Estimated Free Energy of Binding    =   +1.82 kcal/mol  [=(1)+(2)+(3)-(4)]
USER    
USER    (1) Final Intermolecular Energy     =   -6.23 kcal/mol
USER        vdW + Hbond + desolv Energy     =   -6.23 kcal/mol
USER        Electrostatic Energy            =   -0.00 kcal/mol
USER    (2) Final Total Internal Energy     =   +4.49 kcal/mol
USER    (3) Torsional Free Energy           =   +8.05 kcal/mol
USER    (4) Unbound System's Energy  [=(2)] =   +4.49 kcal/mol
USER    
USER    
USER  
USER    DPF = dock.dpf
USER    NEWDPF move	lig2p3c.pdbqt
USER    NEWDPF about	-8.198000 -14.354000 13.542000
USER    NEWDPF tran0	-5.652452 -13.987090 15.135041
USER    NEWDPF axisangle0	0.584870 0.375194 0.719136 98.897152
USER    NEWDPF quaternion0	0.444397 0.285081 0.546416 0.650130
USER    NEWDPF dihe0	80.63 -52.36 -83.69 -119.98 22.07 81.53 123.63 137.25 177.23 127.53 -62.43 -96.94 -81.32 -7.44 -156.43 -167.20 3.66 -50.63 96.85 -92.42 7.47 104.11 -40.81 88.16 -31.66 145.56 153.37 
USER  
USER                              x       y       z    vdW   Elec        q     RMS 
ATOM      1  C2 A3TL A 201      -8.146 -13.044  14.368 +0.03 +0.08    +0.171     3.015
ATOM      2  C1 A3TL A 201      -7.167 -13.364  13.252 +0.49 +0.07    +0.120     3.015
ATOM      3  N1 A3TL A 201      -6.964 -14.792  13.158 -0.15 -0.05    -0.352     3.015
ATOM      4  C11A3TL A 201      -5.859 -15.308  12.639 -0.27 +0.03    +0.241     3.015
ATOM      5  O2 A3TL A 201      -4.920 -14.640  12.260 +0.18 -0.07    -0.271     3.015
ATOM      6  H1 A3TL A 201      -7.691 -15.420  13.501 +0.10 -0.02    +0.163     3.015
ATOM      7  C10A3TL A 201      -5.848 -16.794  12.491 -0.23 -0.02    +0.180     3.015
ATOM      8  N2 A3TL A 201      -5.817 -17.063  11.059 +0.91 +0.04    -0.346     3.015
ATOM      9  C19A3TL A 201      -6.571 -16.428  10.177 -0.08 -0.02    +0.240     3.015
ATOM     10  O4 A3TL A 201      -7.372 -15.572  10.497 -0.25 +0.02    -0.271     3.015
ATOM     11  H2 A3TL A 201      -5.178 -17.781  10.718 +2.29 -0.00    +0.163     3.015
ATOM     12  C18A3TL A 201      -6.403 -16.842   8.743 +0.36 +0.01    +0.174     3.015
ATOM     13  C20A3TL A 201      -5.392 -15.929   8.058 +1.50 +0.01    +0.042     3.015
ATOM     14  N4 A3TL A 201      -7.671 -16.822   8.035 -0.25 +0.00    -0.324     3.015
ATOM     15  C31A3TL A 201      -8.007 -15.846   7.186 -0.23 +0.03    +0.361     3.015
ATOM     16  O8 A3TL A 201      -7.261 -14.924   6.887 +0.17 -0.04    -0.238     3.015
ATOM     17  H4 A3TL A 201      -8.332 -17.583   8.192 +0.15 -0.02    +0.165     3.015
ATOM     18  O9 A3TL A 201      -9.344 -15.880   6.609 -0.75 -0.03    -0.299     3.015
ATOM     19  CA A3TL A 201     -10.468 -15.383   7.330 -0.29 +0.03    +0.219     3.015
ATOM     20  C  A3TL A 201     -10.895 -14.004   6.876 -0.44 +0.01    -0.034     3.015
ATOM     21  C13A3TL A 201     -12.086 -13.458   7.381 -0.23 -0.00    +0.009     3.015
ATOM     22  C14A3TL A 201     -12.494 -12.185   6.998 -0.17 -0.00    +0.001     3.015
ATOM     23  C15A3TL A 201     -11.717 -11.450   6.098 -0.32 +0.00    +0.000     3.015
ATOM     24  C16A3TL A 201     -10.530 -11.992   5.594 -0.38 +0.00    +0.001     3.015
ATOM     25  C17A3TL A 201     -10.118 -13.272   5.990 -0.45 -0.00    +0.009     3.015
ATOM     26  C12A3TL A 201      -4.667 -17.444  13.211 -0.39 +0.00    +0.009     3.015
ATOM     27  CG1A3TL A 201      -3.368 -16.636  13.163 -0.62 +0.00    +0.012     3.015
ATOM     28  CG2A3TL A 201      -5.008 -17.784  14.659 -0.38 +0.00    +0.012     3.015
ATOM     29  C3 A3TL A 201      -7.686 -12.847  11.913 +0.93 +0.03    +0.066     3.015
ATOM     30  C4 A3TL A 201      -8.792 -13.756  11.450 -0.31 -0.00    -0.056     3.015
ATOM     31  C5 A3TL A 201      -9.363 -13.562  10.189 -0.24 -0.00    +0.007     3.015
ATOM     32  C6 A3TL A 201     -10.392 -14.407   9.777 -0.31 -0.00    +0.001     3.015
ATOM     33  C7 A3TL A 201     -10.841 -15.428  10.617 +1.08 -0.00    +0.000     3.015
ATOM     34  C8 A3TL A 201     -10.259 -15.620  11.865 -0.30 -0.00    +0.001     3.015
ATOM     35  C9 A3TL A 201      -9.227 -14.785  12.283 -0.26 -0.00    +0.007     3.015
ATOM     36  O1 A3TL A 201      -9.426 -13.005  13.777 -0.39 -0.10    -0.391     3.015
ATOM     37  H1 A3TL A 201      -9.628 -12.087  13.633 +0.12 +0.10    +0.210     3.015
ATOM     38  C52A3TL A 201      -8.228 -14.087  15.468 -0.32 +0.01    +0.171     3.015
ATOM     39  C51A3TL A 201      -9.625 -14.533  15.856 -0.32 -0.03    +0.120     3.015
ATOM     40  C53A3TL A 201     -10.439 -13.245  15.774 -0.21 -0.00    +0.066     3.015
ATOM     41  C54A3TL A 201     -11.631 -13.324  14.859 -0.29 +0.01    -0.056     3.015
ATOM     42  C55A3TL A 201     -12.275 -12.173  14.432 -0.48 +0.00    +0.007     3.015
ATOM     43  C56A3TL A 201     -13.373 -12.254  13.585 -0.35 +0.00    +0.001     3.015
ATOM     44  C57A3TL A 201     -13.808 -13.502  13.178 -0.31 +0.00    +0.000     3.015
ATOM     45  C58A3TL A 201     -13.147 -14.657  13.596 -0.05 -0.00    +0.001     3.015
ATOM     46  C59A3TL A 201     -12.054 -14.566  14.438 -0.06 -0.00    +0.007     3.015
ATOM     47  N51A3TL A 201      -9.548 -15.059  17.213 -0.14 +0.08    -0.352     3.015
ATOM     48  C61A3TL A 201      -8.529 -15.733  17.746 -0.25 -0.04    +0.241     3.015
ATOM     49  O52A3TL A 201      -7.550 -16.121  17.122 -0.20 +0.05    -0.271     3.015
ATOM     50  H51A3TL A 201     -10.354 -14.896  17.815 +0.13 -0.03    +0.163     3.015
ATOM     51  C60A3TL A 201      -8.692 -16.024  19.210 -0.34 +0.00    +0.180     3.015
ATOM     52  N52A3TL A 201      -7.420 -16.528  19.728 -0.23 +0.01    -0.346     3.015
ATOM     53  C69A3TL A 201      -6.845 -16.139  20.869 -0.38 -0.05    +0.240     3.015
ATOM     54  O54A3TL A 201      -7.188 -15.151  21.497 -0.24 +0.04    -0.271     3.015
ATOM     55  H52A3TL A 201      -6.934 -17.231  19.173 +0.09 -0.01    +0.163     3.015
ATOM     56  C68A3TL A 201      -5.662 -16.953  21.325 +0.29 -0.12    +0.174     3.015
ATOM     57  C70A3TL A 201      -5.246 -16.693  22.771 +0.28 -0.03    +0.042     3.015
ATOM     58  N54A3TL A 201      -4.530 -16.694  20.456 -0.12 +0.08    -0.324     3.015
ATOM     59  C81A3TL A 201      -3.619 -15.776  20.756 -0.16 +0.06    +0.361     3.015
ATOM     60  O58A3TL A 201      -3.692 -15.049  21.735 -0.68 -0.08    -0.238     3.015
ATOM     61  H54A3TL A 201      -4.432 -17.230  19.594 +0.04 -0.03    +0.165     3.015
ATOM     62  O59A3TL A 201      -2.505 -15.639  19.834 -0.19 -0.10    -0.299     3.015
ATOM     63  CA5A3TL A 201      -1.646 -14.501  19.902 -0.19 +0.09    +0.219     3.015
ATOM     64  C50A3TL A 201      -0.601 -14.527  18.807 -0.24 -0.01    -0.034     3.015
ATOM     65  C63A3TL A 201       0.406 -15.492  18.854 -0.15 +0.00    +0.009     3.015
ATOM     66  C64A3TL A 201       1.372 -15.548  17.848 -0.16 +0.00    +0.001     3.015
ATOM     67  C65A3TL A 201       1.336 -14.641  16.793 -0.20 +0.00    +0.000     3.015
ATOM     68  C66A3TL A 201       0.323 -13.681  16.744 -0.33 +0.00    +0.001     3.015
ATOM     69  C67A3TL A 201      -0.653 -13.622  17.745 -0.25 +0.00    +0.009     3.015
ATOM     70  C62A3TL A 201      -9.247 -14.816  19.987 -0.63 +0.00    +0.009     3.015
ATOM     71  CG5A3TL A 201      -8.445 -13.563  19.664 -0.11 +0.00    +0.012     3.015
ATOM     72  CG6A3TL A 201     -10.732 -14.545  19.705 -0.14 +0.00    +0.012     3.015
ATOM     73  O51A3TL A 201      -7.533 -15.238  14.995 -0.09 +0.03    -0.391     3.015
ATOM     74  H51A3TL A 201      -6.901 -15.471  15.665 +0.12 -0.01    +0.210     3.015
TER
ENDMDL
MODEL        5
USER    Run = 5
USER    Cluster Rank = 6
USER    Number of conformations in this cluster = 1
USER  
USER    RMSD from reference structure       = 2.488 A
USER  
USER    Estimated Free Energy of Binding    =   +2.73 kcal/mol  [=(1)+(2)+(3)-(4)]
USER    
USER    (1) Final Intermolecular Energy     =   -5.32 kcal/mol
USER        vdW + Hbond + desolv Energy     =   -4.98 kcal/mol
USER        Electrostatic Energy            =   -0.34 kcal/mol
USER    (2) Final Total Internal Energy     =   +6.33 kcal/mol
USER    (3) Torsional Free Energy           =   +8.05 kcal/mol
USER    (4) Unbound System's Energy  [=(2)] =   +6.33 kcal/mol
USER    
USER    
USER  
USER    DPF = dock.dpf
USER    NEWDPF move	lig2p3c.pdbqt
USER    NEWDPF about	-8.198000 -14.354000 13.542000
USER    NEWDPF tran0	-6.528998 -14.382969 12.722635
USER    NEWDPF axisangle0	0.403065 0.794516 -0.454184 -138.762562
USER    NEWDPF quaternion0	0.377246 0.743623 -0.425091 -0.352147
USER    NEWDPF dihe0	39.90 145.83 -43.21 8.40 -123.46 -95.92 -179.72 180.00 -19.30 151.24 -4.45 -180.00 163.40 -179.99 -31.81 -179.99 14.93 177.40 -166.76 -119.48 -106.38 -119.85 -132.23 -179.92 96.46 135.99 20.05 
USER  
USER                              x       y       z    vdW   Elec        q     RMS 
ATOM      1  C2 A3TL A 201      -7.583 -15.792  14.867 -0.22 -0.04    +0.171     2.488
ATOM      2  C1 A3TL A 201      -6.385 -14.906  15.159 -0.02 +0.02    +0.120     2.488
ATOM      3  N1 A3TL A 201      -5.771 -15.288  16.410 +0.09 +0.02    -0.352     2.488
ATOM      4  C11A3TL A 201      -4.557 -15.817  16.460 +0.09 +0.01    +0.241     2.488
ATOM      5  O2 A3TL A 201      -3.851 -15.968  15.486 -0.22 -0.06    -0.271     2.488
ATOM      6  H1 A3TL A 201      -6.286 -15.146  17.279 -0.32 -0.03    +0.163     2.488
ATOM      7  C10A3TL A 201      -4.109 -16.279  17.808 -0.03 +0.01    +0.180     2.488
ATOM      8  N2 A3TL A 201      -5.208 -15.998  18.723 +0.03 +0.04    -0.346     2.488
ATOM      9  C19A3TL A 201      -6.454 -16.388  18.513 -0.24 -0.02    +0.240     2.488
ATOM     10  O4 A3TL A 201      -6.790 -17.002  17.520 -0.22 +0.05    -0.271     2.488
ATOM     11  H2 A3TL A 201      -5.004 -15.473  19.573 -0.22 -0.02    +0.163     2.488
ATOM     12  C18A3TL A 201      -7.454 -16.005  19.568 -0.39 -0.00    +0.174     2.488
ATOM     13  C20A3TL A 201      -7.403 -17.009  20.714 -0.41 -0.00    +0.042     2.488
ATOM     14  N4 A3TL A 201      -8.796 -15.923  19.019 -0.19 +0.00    -0.324     2.488
ATOM     15  C31A3TL A 201      -9.606 -14.885  19.248 -0.28 +0.00    +0.361     2.488
ATOM     16  O8 A3TL A 201      -9.273 -13.895  19.884 -0.35 -0.03    -0.238     2.488
ATOM     17  H4 A3TL A 201      -9.134 -16.688  18.435 +0.12 -0.01    +0.165     2.488
ATOM     18  O9 A3TL A 201     -10.964 -14.958  18.727 -0.34 +0.04    -0.299     2.488
ATOM     19  CA A3TL A 201     -11.246 -15.629  17.500 +0.50 -0.15    +0.219     2.488
ATOM     20  C  A3TL A 201     -11.280 -14.692  16.312 -0.14 +0.02    -0.034     2.488
ATOM     21  C13A3TL A 201     -10.532 -13.505  16.357 -0.10 -0.00    +0.009     2.488
ATOM     22  C14A3TL A 201     -10.528 -12.634  15.273 -0.13 +0.00    +0.001     2.488
ATOM     23  C15A3TL A 201     -11.280 -12.940  14.136 -0.38 +0.00    +0.000     2.488
ATOM     24  C16A3TL A 201     -12.026 -14.123  14.088 -0.29 -0.00    +0.001     2.488
ATOM     25  C17A3TL A 201     -12.021 -15.002  15.180 +1.78 -0.01    +0.009     2.488
ATOM     26  C12A3TL A 201      -3.729 -17.759  17.821 -0.30 +0.00    +0.009     2.488
ATOM     27  CG1A3TL A 201      -3.789 -18.445  16.454 -0.34 +0.01    +0.012     2.488
ATOM     28  CG2A3TL A 201      -2.358 -17.983  18.450 -0.23 +0.01    +0.012     2.488
ATOM     29  C3 A3TL A 201      -5.349 -15.014  14.043 +0.03 +0.02    +0.066     2.488
ATOM     30  C4 A3TL A 201      -5.061 -16.472  13.803 -0.33 -0.00    -0.056     2.488
ATOM     31  C5 A3TL A 201      -5.834 -17.444  14.443 -0.31 -0.00    +0.007     2.488
ATOM     32  C6 A3TL A 201      -5.550 -18.789  14.216 -0.24 -0.00    +0.001     2.488
ATOM     33  C7 A3TL A 201      -4.506 -19.152  13.364 +1.82 +0.00    +0.000     2.488
ATOM     34  C8 A3TL A 201      -3.749 -18.177  12.722 +0.75 +0.00    +0.001     2.488
ATOM     35  C9 A3TL A 201      -4.029 -16.832  12.938 -0.51 +0.00    +0.007     2.488
ATOM     36  O1 A3TL A 201      -8.196 -16.054  16.111 -0.12 +0.13    -0.391     2.488
ATOM     37  H1 A3TL A 201      -8.464 -16.966  16.091 -0.04 -0.14    +0.210     2.488
ATOM     38  C52A3TL A 201      -8.656 -15.155  14.001 -0.20 -0.04    +0.171     2.488
ATOM     39  C51A3TL A 201      -8.578 -15.461  12.518 -0.25 -0.04    +0.120     2.488
ATOM     40  C53A3TL A 201      -7.107 -15.221  12.188 -0.37 -0.00    +0.066     2.488
ATOM     41  C54A3TL A 201      -6.760 -15.416  10.736 -0.12 -0.00    -0.056     2.488
ATOM     42  C55A3TL A 201      -6.024 -16.517  10.325 +0.55 -0.00    +0.007     2.488
ATOM     43  C56A3TL A 201      -5.710 -16.691   8.983 +1.12 +0.00    +0.001     2.488
ATOM     44  C57A3TL A 201      -6.146 -15.748   8.070 +0.07 +0.00    +0.000     2.488
ATOM     45  C58A3TL A 201      -6.899 -14.651   8.486 -0.28 +0.00    +0.001     2.488
ATOM     46  C59A3TL A 201      -7.209 -14.487   9.823 -0.25 +0.00    +0.007     2.488
ATOM     47  N51A3TL A 201      -9.463 -14.524  11.837 -0.07 +0.06    -0.352     2.488
ATOM     48  C61A3TL A 201      -9.406 -13.194  11.896 -0.03 +0.03    +0.241     2.488
ATOM     49  O52A3TL A 201      -8.670 -12.562  12.642 +0.37 -0.14    -0.271     2.488
ATOM     50  H51A3TL A 201     -10.199 -14.926  11.258 +0.09 -0.05    +0.163     2.488
ATOM     51  C60A3TL A 201     -10.371 -12.503  10.976 +0.35 +0.00    +0.180     2.488
ATOM     52  N52A3TL A 201     -10.529 -13.317   9.771 -0.08 +0.04    -0.346     2.488
ATOM     53  C69A3TL A 201     -11.615 -14.028   9.459 -0.22 -0.02    +0.240     2.488
ATOM     54  O54A3TL A 201     -12.511 -14.276  10.248 -0.04 +0.05    -0.271     2.488
ATOM     55  H52A3TL A 201      -9.746 -13.344   9.117 -0.14 -0.02    +0.163     2.488
ATOM     56  C68A3TL A 201     -11.654 -14.600   8.066 -0.26 -0.01    +0.174     2.488
ATOM     57  C70A3TL A 201     -10.530 -15.590   7.767 -0.13 +0.01    +0.042     2.488
ATOM     58  N54A3TL A 201     -11.604 -13.524   7.096 -0.19 +0.08    -0.324     2.488
ATOM     59  C81A3TL A 201     -10.456 -12.953   6.750 -0.25 -0.03    +0.361     2.488
ATOM     60  O58A3TL A 201      -9.381 -13.239   7.255 -0.35 -0.00    -0.238     2.488
ATOM     61  H54A3TL A 201     -12.471 -13.198   6.669 -0.06 -0.13    +0.165     2.488
ATOM     62  O59A3TL A 201     -10.525 -11.917   5.734 -0.38 -0.03    -0.299     2.488
ATOM     63  CA5A3TL A 201     -11.752 -11.650   5.055 -0.24 -0.01    +0.219     2.488
ATOM     64  C50A3TL A 201     -12.456 -10.441   5.634 -0.20 -0.01    -0.034     2.488
ATOM     65  C63A3TL A 201     -12.219 -10.091   6.965 -0.25 +0.00    +0.009     2.488
ATOM     66  C64A3TL A 201     -12.843  -8.972   7.518 -0.21 +0.00    +0.001     2.488
ATOM     67  C65A3TL A 201     -13.705  -8.198   6.745 -0.11 +0.00    +0.000     2.488
ATOM     68  C66A3TL A 201     -13.934  -8.546   5.412 -0.07 +0.00    +0.001     2.488
ATOM     69  C67A3TL A 201     -13.308  -9.662   4.849 -0.10 +0.00    +0.009     2.488
ATOM     70  C62A3TL A 201     -11.699 -12.160  11.675 -0.33 +0.00    +0.009     2.488
ATOM     71  CG5A3TL A 201     -11.537 -10.922  12.546 -0.34 +0.00    +0.012     2.488
ATOM     72  CG6A3TL A 201     -12.858 -11.932  10.693 -0.28 +0.00    +0.012     2.488
ATOM     73  O51A3TL A 201      -9.909 -15.648  14.470 -0.11 +0.32    -0.391     2.488
ATOM     74  H51A3TL A 201      -9.763 -16.541  14.756 +0.02 -0.27    +0.210     2.488
TER
ENDMDL
MODEL        9
USER    Run = 9
USER    Cluster Rank = 7
USER    Number of conformations in this cluster = 1
USER  
USER    RMSD from reference structure       = 3.135 A
USER  
USER    Estimated Free Energy of Binding    =   +5.64 kcal/mol  [=(1)+(2)+(3)-(4)]
USER    
USER    (1) Final Intermolecular Energy     =   -2.41 kcal/mol
USER        vdW + Hbond + desolv Energy     =   -2.89 kcal/mol
USER        Electrostatic Energy            =   +0.48 kcal/mol
USER    (2) Final Total Internal Energy     =   -3.89 kcal/mol
USER    (3) Torsional Free Energy           =   +8.05 kcal/mol
USER    (4) Unbound System's Energy  [=(2)] =   -3.89 kcal/mol
USER    
USER    
USER  
USER    DPF = dock.dpf
USER    NEWDPF move	lig2p3c.pdbqt
USER    NEWDPF about	-8.198000 -14.354000 13.542000
USER    NEWDPF tran0	-5.713104 -13.988860 16.988248
USER    NEWDPF axisangle0	-0.374672 -0.290599 0.880439 -39.100596
USER    NEWDPF quaternion0	-0.125378 -0.097244 0.294625 -0.942348
USER    NEWDPF dihe0	140.46 122.09 165.13 -172.45 117.13 -51.53 -143.15 -39.42 -87.82 -105.08 -90.56 135.90 177.69 -108.63 -177.72 -170.79 -13.47 83.13 179.36 62.64 -31.00 -127.44 21.40 -178.74 -154.63 -46.11 53.53 
USER  
USER                              x       y       z    vdW   Elec        q     RMS 
ATOM      1  C2 A3TL A 201      -5.966 -16.671  17.650 -0.23 -0.01    +0.171     3.135
ATOM      2  C1 A3TL A 201      -6.916 -16.139  16.591 -0.26 -0.02    +0.120     3.135
ATOM      3  N1 A3TL A 201      -7.608 -14.968  17.081 -0.12 +0.02    -0.352     3.135
ATOM      4  C11A3TL A 201      -8.792 -15.051  17.670 -0.27 -0.02    +0.241     3.135
ATOM      5  O2 A3TL A 201      -9.357 -16.101  17.894 -0.21 +0.07    -0.271     3.135
ATOM      6  H1 A3TL A 201      -7.172 -14.052  16.970 -0.02 +0.00    +0.163     3.135
ATOM      7  C10A3TL A 201      -9.439 -13.748  18.005 -0.25 +0.01    +0.180     3.135
ATOM      8  N2 A3TL A 201      -9.948 -13.208  16.751 +0.80 -0.02    -0.346     3.135
ATOM      9  C19A3TL A 201     -10.495 -13.949  15.802 -0.26 -0.05    +0.240     3.135
ATOM     10  O4 A3TL A 201     -10.600 -15.156  15.894 -0.25 +0.21    -0.271     3.135
ATOM     11  H2 A3TL A 201      -9.880 -12.202  16.597 +1.40 +0.04    +0.163     3.135
ATOM     12  C18A3TL A 201     -10.961 -13.217  14.576 -0.32 -0.00    +0.174     3.135
ATOM     13  C20A3TL A 201     -12.484 -13.244  14.508 +0.20 -0.00    +0.042     3.135
ATOM     14  N4 A3TL A 201     -10.386 -13.785  13.370 -0.09 +0.03    -0.324     3.135
ATOM     15  C31A3TL A 201     -10.892 -14.868  12.771 -0.13 -0.16    +0.361     3.135
ATOM     16  O8 A3TL A 201     -11.907 -15.436  13.148 -0.30 +0.19    -0.238     3.135
ATOM     17  H4 A3TL A 201      -9.563 -13.340  12.963 +0.09 +0.02    +0.165     3.135
ATOM     18  O9 A3TL A 201     -10.173 -15.405  11.624 -0.19 +0.15    -0.299     3.135
ATOM     19  CA A3TL A 201      -9.233 -14.609  10.906 -0.23 -0.03    +0.219     3.135
ATOM     20  C  A3TL A 201      -8.892 -15.182   9.547 -0.35 +0.00    -0.034     3.135
ATOM     21  C13A3TL A 201      -7.782 -16.032   9.425 -0.45 -0.00    +0.009     3.135
ATOM     22  C14A3TL A 201      -7.455 -16.589   8.194 -0.52 +0.00    +0.001     3.135
ATOM     23  C15A3TL A 201      -8.233 -16.294   7.071 -0.52 +0.00    +0.000     3.135
ATOM     24  C16A3TL A 201      -9.341 -15.448   7.191 -0.56 +0.00    +0.001     3.135
ATOM     25  C17A3TL A 201      -9.672 -14.895   8.436 -0.40 -0.00    +0.009     3.135
ATOM     26  C12A3TL A 201     -10.549 -13.898  19.045 -0.51 +0.00    +0.009     3.135
ATOM     27  CG1A3TL A 201     -11.706 -12.907  18.891 +0.54 +0.00    +0.012     3.135
ATOM     28  CG2A3TL A 201     -11.094 -15.322  19.087 +0.05 -0.00    +0.012     3.135
ATOM     29  C3 A3TL A 201      -6.156 -15.771  15.319 -0.28 +0.00    +0.066     3.135
ATOM     30  C4 A3TL A 201      -5.325 -16.955  14.903 -0.26 -0.00    -0.056     3.135
ATOM     31  C5 A3TL A 201      -5.927 -18.208  14.767 -0.30 -0.00    +0.007     3.135
ATOM     32  C6 A3TL A 201      -5.143 -19.296  14.388 +0.30 +0.00    +0.001     3.135
ATOM     33  C7 A3TL A 201      -3.777 -19.128  14.153 +1.71 +0.00    +0.000     3.135
ATOM     34  C8 A3TL A 201      -3.189 -17.874  14.281 +0.65 +0.00    +0.001     3.135
ATOM     35  C9 A3TL A 201      -3.965 -16.781  14.652 -0.35 +0.00    +0.007     3.135
ATOM     36  O1 A3TL A 201      -5.971 -18.076  17.519 -0.13 +0.05    -0.391     3.135
ATOM     37  H1 A3TL A 201      -6.870 -18.326  17.341 -0.30 -0.13    +0.210     3.135
ATOM     38  C52A3TL A 201      -4.519 -16.243  17.486 +0.05 +0.00    +0.171     3.135
ATOM     39  C51A3TL A 201      -3.861 -15.647  18.716 +1.39 -0.00    +0.120     3.135
ATOM     40  C53A3TL A 201      -2.551 -16.421  18.822 -0.22 +0.02    +0.066     3.135
ATOM     41  C54A3TL A 201      -1.371 -15.728  18.195 -0.21 -0.02    -0.056     3.135
ATOM     42  C55A3TL A 201      -1.262 -15.621  16.817 -0.29 +0.00    +0.007     3.135
ATOM     43  C56A3TL A 201      -0.171 -14.978  16.246 +0.28 +0.00    +0.001     3.135
ATOM     44  C57A3TL A 201       0.799 -14.448  17.078 -0.25 +0.00    +0.000     3.135
ATOM     45  C58A3TL A 201       0.677 -14.544  18.463 -0.17 +0.00    +0.001     3.135
ATOM     46  C59A3TL A 201      -0.413 -15.185  19.023 -0.22 +0.00    +0.007     3.135
ATOM     47  N51A3TL A 201      -4.750 -15.895  19.844 -0.13 +0.02    -0.352     3.135
ATOM     48  C61A3TL A 201      -5.176 -17.083  20.272 +0.09 -0.11    +0.241     3.135
ATOM     49  O52A3TL A 201      -4.978 -18.143  19.691 +0.08 +0.19    -0.271     3.135
ATOM     50  H51A3TL A 201      -5.080 -15.078  20.357 -0.03 +0.01    +0.163     3.135
ATOM     51  C60A3TL A 201      -5.975 -17.022  21.541 +0.21 -0.14    +0.180     3.135
ATOM     52  N52A3TL A 201      -5.343 -16.059  22.442 -0.10 +0.17    -0.346     3.135
ATOM     53  C69A3TL A 201      -4.172 -16.236  23.060 -0.22 -0.00    +0.240     3.135
ATOM     54  O54A3TL A 201      -3.603 -17.312  23.136 -0.13 +0.04    -0.271     3.135
ATOM     55  H52A3TL A 201      -5.836 -15.183  22.613 -0.15 -0.05    +0.163     3.135
ATOM     56  C68A3TL A 201      -3.600 -15.026  23.752 -0.30 +0.09    +0.174     3.135
ATOM     57  C70A3TL A 201      -3.933 -13.701  23.069 +1.15 +0.02    +0.042     3.135
ATOM     58  N54A3TL A 201      -2.159 -15.157  23.849 -0.07 -0.16    -0.324     3.135
ATOM     59  C81A3TL A 201      -1.353 -14.691  22.901 -0.11 +0.16    +0.361     3.135
ATOM     60  O58A3TL A 201      -1.755 -14.182  21.865 -0.34 -0.11    -0.238     3.135
ATOM     61  H54A3TL A 201      -1.755 -15.617  24.664 +0.05 +0.10    +0.165     3.135
ATOM     62  O59A3TL A 201       0.073 -14.838  23.130 -0.05 -0.13    -0.299     3.135
ATOM     63  CA5A3TL A 201       0.666 -16.135  23.198 -0.01 +0.10    +0.219     3.135
ATOM     64  C50A3TL A 201       0.374 -16.946  21.954 -0.03 -0.02    -0.034     3.135
ATOM     65  C63A3TL A 201       1.430 -17.301  21.113 -0.02 +0.01    +0.009     3.135
ATOM     66  C64A3TL A 201       1.191 -18.061  19.968 -0.05 +0.00    +0.001     3.135
ATOM     67  C65A3TL A 201      -0.104 -18.471  19.658 -0.10 +0.00    +0.000     3.135
ATOM     68  C66A3TL A 201      -1.157 -18.121  20.506 +0.44 +0.00    +0.001     3.135
ATOM     69  C67A3TL A 201      -0.924 -17.364  21.658 -0.08 +0.01    +0.009     3.135
ATOM     70  C62A3TL A 201      -7.467 -16.744  21.279 -0.47 -0.00    +0.009     3.135
ATOM     71  CG5A3TL A 201      -7.797 -15.290  21.580 -0.35 -0.00    +0.012     3.135
ATOM     72  CG6A3TL A 201      -7.898 -17.068  19.841 -0.26 +0.00    +0.012     3.135
ATOM     73  O51A3TL A 201      -3.782 -17.411  17.136 -0.06 -0.11    -0.391     3.135
ATOM     74  H51A3TL A 201      -3.918 -18.041  17.833 +0.12 +0.07    +0.210     3.135
TER
ENDMDL
MODEL        3
USER    Run = 3
USER    Cluster Rank = 8
USER    Number of conformations in this cluster = 1
USER  
USER    RMSD from reference structure       = 3.379 A
USER  
USER    Estimated Free Energy of Binding    =   +6.32 kcal/mol  [=(1)+(2)+(3)-(4)]
USER    
USER    (1) Final Intermolecular Energy     =   -1.73 kcal/mol
USER        vdW + Hbond + desolv Energy     =   -1.50 kcal/mol
USER        Electrostatic Energy            =   -0.23 kcal/mol
USER    (2) Final Total Internal Energy     =   -5.03 kcal/mol
USER    (3) Torsional Free Energy           =   +8.05 kcal/mol
USER    (4) Unbound System's Energy  [=(2)] =   -5.03 kcal/mol
USER    
USER    
USER  
USER    DPF = dock.dpf
USER    NEWDPF move	lig2p3c.pdbqt
USER    NEWDPF about	-8.198000 -14.354000 13.542000
USER    NEWDPF tran0	-9.953816 -15.880528 14.380724
USER    NEWDPF axisangle0	0.343839 -0.809286 -0.476268 114.094293
USER    NEWDPF quaternion0	0.288521 -0.679087 -0.399645 0.543949
USER    NEWDPF dihe0	156.49 129.57 -73.93 105.72 105.91 103.07 -122.72 145.30 89.93 129.21 -28.44 70.98 116.51 157.74 -171.72 -158.96 -164.27 170.93 34.09 179.72 94.80 9.37 33.41 -152.63 142.90 -15.55 39.56 
USER  
USER                              x       y       z    vdW   Elec        q     RMS 
ATOM      1  C2 A3TL A 201      -7.626 -16.897  15.495 -0.03 -0.08    +0.171     3.379
ATOM      2  C1 A3TL A 201      -8.849 -16.856  16.394 +0.08 -0.08    +0.120     3.379
ATOM      3  N1 A3TL A 201      -8.628 -15.952  17.501 -0.13 +0.08    -0.352     3.379
ATOM      4  C11A3TL A 201      -7.948 -16.319  18.578 -0.26 -0.01    +0.241     3.379
ATOM      5  O2 A3TL A 201      -7.416 -17.402  18.698 -0.57 +0.01    -0.271     3.379
ATOM      6  H1 A3TL A 201      -9.006 -15.006  17.451 +0.12 -0.02    +0.163     3.379
ATOM      7  C10A3TL A 201      -7.913 -15.322  19.689 -0.40 +0.00    +0.180     3.379
ATOM      8  N2 A3TL A 201      -6.754 -15.659  20.506 -0.22 +0.03    -0.346     3.379
ATOM      9  C19A3TL A 201      -6.837 -16.217  21.702 +0.03 -0.14    +0.240     3.379
ATOM     10  O4 A3TL A 201      -7.900 -16.480  22.229 +1.24 +0.22    -0.271     3.379
ATOM     11  H2 A3TL A 201      -5.827 -15.453  20.134 +0.05 -0.01    +0.163     3.379
ATOM     12  C18A3TL A 201      -5.534 -16.490  22.397 +0.30 -0.14    +0.174     3.379
ATOM     13  C20A3TL A 201      -5.235 -15.370  23.389 +0.55 -0.01    +0.042     3.379
ATOM     14  N4 A3TL A 201      -4.447 -16.633  21.445 -0.09 +0.12    -0.324     3.379
ATOM     15  C31A3TL A 201      -3.733 -15.591  21.005 -0.17 +0.07    +0.361     3.379
ATOM     16  O8 A3TL A 201      -3.891 -14.446  21.404 -0.78 -0.14    -0.238     3.379
ATOM     17  H4 A3TL A 201      -4.219 -17.564  21.098 -0.32 -0.19    +0.165     3.379
ATOM     18  O9 A3TL A 201      -2.732 -15.842  19.976 -0.18 -0.09    -0.299     3.379
ATOM     19  CA A3TL A 201      -1.452 -16.372  20.311 -0.10 +0.10    +0.219     3.379
ATOM     20  C  A3TL A 201      -1.397 -16.936  21.715 -0.09 -0.02    -0.034     3.379
ATOM     21  C13A3TL A 201      -0.757 -16.197  22.722 -0.06 +0.00    +0.009     3.379
ATOM     22  C14A3TL A 201      -0.707 -16.679  24.025 -0.02 +0.00    +0.001     3.379
ATOM     23  C15A3TL A 201      -1.292 -17.911  24.331 -0.03 +0.00    +0.000     3.379
ATOM     24  C16A3TL A 201      -1.932 -18.649  23.329 -0.09 +0.00    +0.001     3.379
ATOM     25  C17A3TL A 201      -1.987 -18.155  22.018 +0.16 +0.01    +0.009     3.379
ATOM     26  C12A3TL A 201      -7.844 -13.883  19.181 -0.56 +0.00    +0.009     3.379
ATOM     27  CG1A3TL A 201      -7.196 -13.723  17.803 -0.02 -0.00    +0.012     3.379
ATOM     28  CG2A3TL A 201      -9.216 -13.217  19.184 -0.05 +0.00    +0.012     3.379
ATOM     29  C3 A3TL A 201     -10.077 -16.395  15.615 +0.74 -0.09    +0.066     3.379
ATOM     30  C4 A3TL A 201      -9.948 -14.919  15.354 -0.29 +0.03    -0.056     3.379
ATOM     31  C5 A3TL A 201     -11.098 -14.144  15.184 -0.33 -0.00    +0.007     3.379
ATOM     32  C6 A3TL A 201     -10.962 -12.779  14.936 -0.39 +0.00    +0.001     3.379
ATOM     33  C7 A3TL A 201      -9.693 -12.203  14.857 +0.45 +0.00    +0.000     3.379
ATOM     34  C8 A3TL A 201      -8.554 -12.981  15.039 -0.20 +0.00    +0.001     3.379
ATOM     35  C9 A3TL A 201      -8.681 -14.343  15.293 -0.33 -0.00    +0.007     3.379
ATOM     36  O1 A3TL A 201      -6.725 -17.807  16.089 +0.95 +0.19    -0.391     3.379
ATOM     37  H1 A3TL A 201      -6.949 -17.843  17.012 -0.45 -0.11    +0.210     3.379
ATOM     38  C52A3TL A 201      -7.879 -17.419  14.092 -0.29 -0.14    +0.171     3.379
ATOM     39  C51A3TL A 201      -7.672 -16.422  12.967 -0.28 -0.06    +0.120     3.379
ATOM     40  C53A3TL A 201      -7.514 -17.311  11.737 +0.27 -0.07    +0.066     3.379
ATOM     41  C54A3TL A 201      -7.814 -16.620  10.434 -0.37 +0.03    -0.056     3.379
ATOM     42  C55A3TL A 201      -8.994 -15.914  10.261 -0.37 -0.00    +0.007     3.379
ATOM     43  C56A3TL A 201      -9.263 -15.277   9.056 -0.38 -0.00    +0.001     3.379
ATOM     44  C57A3TL A 201      -8.330 -15.361   8.037 -0.49 +0.00    +0.000     3.379
ATOM     45  C58A3TL A 201      -7.138 -16.059   8.221 -0.50 +0.00    +0.001     3.379
ATOM     46  C59A3TL A 201      -6.879 -16.689   9.424 -0.31 -0.00    +0.007     3.379
ATOM     47  N51A3TL A 201      -6.461 -15.672  13.274 -0.12 -0.00    -0.352     3.379
ATOM     48  C61A3TL A 201      -5.210 -16.038  13.000 -0.31 +0.02    +0.241     3.379
ATOM     49  O52A3TL A 201      -4.887 -17.134  12.558 -0.23 -0.01    -0.271     3.379
ATOM     50  H51A3TL A 201      -6.584 -14.776  13.745 +0.09 +0.03    +0.163     3.379
ATOM     51  C60A3TL A 201      -4.185 -14.988  13.317 +0.01 +0.04    +0.180     3.379
ATOM     52  N52A3TL A 201      -3.633 -15.264  14.643 -0.16 -0.09    -0.346     3.379
ATOM     53  C69A3TL A 201      -3.216 -16.458  15.071 -0.27 +0.06    +0.240     3.379
ATOM     54  O54A3TL A 201      -3.463 -17.506  14.498 -0.23 -0.08    -0.271     3.379
ATOM     55  H52A3TL A 201      -3.561 -14.481  15.293 +0.10 +0.05    +0.163     3.379
ATOM     56  C68A3TL A 201      -2.470 -16.469  16.380 -0.24 +0.06    +0.174     3.379
ATOM     57  C70A3TL A 201      -3.233 -15.830  17.538 -0.02 +0.01    +0.042     3.379
ATOM     58  N54A3TL A 201      -1.199 -15.788  16.221 -0.11 -0.11    -0.324     3.379
ATOM     59  C81A3TL A 201      -1.015 -14.548  16.659 -0.22 +0.11    +0.361     3.379
ATOM     60  O58A3TL A 201      -1.901 -13.873  17.163 -0.09 -0.07    -0.238     3.379
ATOM     61  H54A3TL A 201      -0.428 -16.274  15.763 +0.07 +0.06    +0.165     3.379
ATOM     62  O59A3TL A 201       0.313 -13.987  16.486 -0.20 -0.09    -0.299     3.379
ATOM     63  CA5A3TL A 201       1.460 -14.836  16.471 -0.01 +0.07    +0.219     3.379
ATOM     64  C50A3TL A 201       1.109 -16.254  16.869 -0.15 -0.01    -0.034     3.379
ATOM     65  C63A3TL A 201       0.572 -16.489  18.135 -0.13 +0.00    +0.009     3.379
ATOM     66  C64A3TL A 201       0.224 -17.784  18.522 -0.12 +0.00    +0.001     3.379
ATOM     67  C65A3TL A 201       0.411 -18.849  17.644 -0.18 +0.00    +0.000     3.379
ATOM     68  C66A3TL A 201       0.941 -18.610  16.374 -0.04 +0.00    +0.001     3.379
ATOM     69  C67A3TL A 201       1.287 -17.314  15.978 +0.28 +0.00    +0.009     3.379
ATOM     70  C62A3TL A 201      -3.119 -14.861  12.213 +0.23 +0.00    +0.009     3.379
ATOM     71  CG5A3TL A 201      -2.167 -13.714  12.523 +1.75 +0.00    +0.012     3.379
ATOM     72  CG6A3TL A 201      -2.304 -16.146  12.007 +3.07 -0.00    +0.012     3.379
ATOM     73  O51A3TL A 201      -6.965 -18.492  13.881 -0.21 +0.26    -0.391     3.379
ATOM     74  H51A3TL A 201      -6.104 -18.169  14.120 +0.12 -0.05    +0.210     3.379
TER
ENDMDL
MODEL        6
USER    Run = 6
USER    Cluster Rank = 9
USER    Number of conformations in this cluster = 1
USER  
USER    RMSD from reference structure       = 3.185 A
USER  
USER    Estimated Free Energy of Binding    =   +9.17 kcal/mol  [=(1)+(2)+(3)-(4)]
USER    
USER    (1) Final Intermolecular Energy     =   +1.11 kcal/mol
USER        vdW + Hbond + desolv Energy     =   +0.98 kcal/mol
USER        Electrostatic Energy            =   +0.13 kcal/mol
USER    (2) Final Total Internal Energy     =  +10.41 kcal/mol
USER    (3) Torsional Free Energy           =   +8.05 kcal/mol
USER    (4) Unbound System's Energy  [=(2)] =  +10.41 kcal/mol
USER    
USER    
USER  
USER    DPF = dock.dpf
USER    NEWDPF move	lig2p3c.pdbqt
USER    NEWDPF about	-8.198000 -14.354000 13.542000
USER    NEWDPF tran0	-6.760281 -15.849326 13.654149
USER    NEWDPF axisangle0	0.174010 -0.943178 0.283084 151.268598
USER    NEWDPF quaternion0	0.168569 -0.913686 0.274233 0.248110
USER    NEWDPF dihe0	47.42 -178.17 -83.78 5.27 -96.50 -167.42 -179.54 179.88 115.65 176.92 13.55 -8.34 -127.89 -128.95 -66.27 139.01 171.57 170.44 178.96 32.27 7.51 55.89 144.62 -23.50 80.50 -144.33 -32.14 
USER  
USER                              x       y       z    vdW   Elec        q     RMS 
ATOM      1  C2 A3TL A 201      -4.884 -16.927  15.390 -0.23 +0.02    +0.171     3.185
ATOM      2  C1 A3TL A 201      -4.989 -15.412  15.357 +0.10 +0.02    +0.120     3.185
ATOM      3  N1 A3TL A 201      -4.014 -14.822  16.246 +1.64 -0.02    -0.352     3.185
ATOM      4  C11A3TL A 201      -2.852 -15.408  16.497 -0.15 +0.05    +0.241     3.185
ATOM      5  O2 A3TL A 201      -2.494 -16.440  15.970 -0.20 -0.09    -0.271     3.185
ATOM      6  H1 A3TL A 201      -4.225 -13.929  16.691 +2.28 -0.06    +0.163     3.185
ATOM      7  C10A3TL A 201      -2.005 -14.744  17.532 -0.06 +0.05    +0.180     3.185
ATOM      8  N2 A3TL A 201      -1.926 -15.671  18.654 -0.10 -0.12    -0.346     3.185
ATOM      9  C19A3TL A 201      -1.836 -16.983  18.516 -0.11 +0.12    +0.240     3.185
ATOM     10  O4 A3TL A 201      -1.830 -17.528  17.429 -0.11 -0.15    -0.271     3.185
ATOM     11  H2 A3TL A 201      -1.940 -15.286  19.598 +0.06 +0.06    +0.163     3.185
ATOM     12  C18A3TL A 201      -1.766 -17.780  19.788 +0.01 +0.13    +0.174     3.185
ATOM     13  C20A3TL A 201      -3.139 -17.810  20.452 +0.74 +0.00    +0.042     3.185
ATOM     14  N4 A3TL A 201      -0.771 -17.238  20.696 -0.03 -0.21    -0.324     3.185
ATOM     15  C31A3TL A 201      -0.333 -17.908  21.767 -0.01 +0.28    +0.361     3.185
ATOM     16  O8 A3TL A 201      -0.683 -19.047  22.042 -0.58 -0.29    -0.238     3.185
ATOM     17  H4 A3TL A 201      -0.391 -16.310  20.510 +0.05 +0.08    +0.165     3.185
ATOM     18  O9 A3TL A 201       0.593 -17.225  22.661 -0.00 -0.17    -0.299     3.185
ATOM     19  CA A3TL A 201       0.481 -15.825  22.905 -0.02 +0.10    +0.219     3.185
ATOM     20  C  A3TL A 201      -0.955 -15.364  23.039 -0.10 -0.02    -0.034     3.185
ATOM     21  C13A3TL A 201      -1.793 -16.005  23.964 -0.09 +0.00    +0.009     3.185
ATOM     22  C14A3TL A 201      -3.111 -15.591  24.123 -0.23 +0.00    +0.001     3.185
ATOM     23  C15A3TL A 201      -3.604 -14.536  23.351 -0.38 +0.00    +0.000     3.185
ATOM     24  C16A3TL A 201      -2.770 -13.895  22.429 -0.28 +0.00    +0.001     3.185
ATOM     25  C17A3TL A 201      -1.439 -14.310  22.277 -0.27 +0.00    +0.009     3.185
ATOM     26  C12A3TL A 201      -0.617 -14.380  17.004 -0.40 +0.00    +0.009     3.185
ATOM     27  CG1A3TL A 201      -0.018 -15.397  16.029 +1.76 +0.00    +0.012     3.185
ATOM     28  CG2A3TL A 201      -0.601 -12.991  16.374 -0.52 +0.00    +0.012     3.185
ATOM     29  C3 A3TL A 201      -4.757 -14.885  13.944 +0.54 +0.02    +0.066     3.185
ATOM     30  C4 A3TL A 201      -3.913 -15.882  13.197 -0.48 -0.01    -0.056     3.185
ATOM     31  C5 A3TL A 201      -2.611 -16.146  13.629 -0.35 +0.00    +0.007     3.185
ATOM     32  C6 A3TL A 201      -1.839 -17.066  12.922 +1.26 +0.00    +0.001     3.185
ATOM     33  C7 A3TL A 201      -2.365 -17.709  11.800 +3.53 -0.00    +0.000     3.185
ATOM     34  C8 A3TL A 201      -3.666 -17.448  11.385 +0.93 +0.00    +0.001     3.185
ATOM     35  C9 A3TL A 201      -4.446 -16.535  12.088 -0.38 +0.00    +0.007     3.185
ATOM     36  O1 A3TL A 201      -4.220 -17.254  16.591 -0.07 -0.08    -0.391     3.185
ATOM     37  H1 A3TL A 201      -3.544 -17.881  16.363 +0.12 +0.08    +0.210     3.185
ATOM     38  C52A3TL A 201      -6.212 -17.661  15.435 -0.03 -0.04    +0.171     3.185
ATOM     39  C51A3TL A 201      -7.291 -17.137  14.507 -0.27 -0.06    +0.120     3.185
ATOM     40  C53A3TL A 201      -6.501 -16.618  13.309 -0.34 -0.01    +0.066     3.185
ATOM     41  C54A3TL A 201      -7.251 -15.633  12.453 -0.30 +0.01    -0.056     3.185
ATOM     42  C55A3TL A 201      -7.716 -15.995  11.198 -0.36 -0.00    +0.007     3.185
ATOM     43  C56A3TL A 201      -8.410 -15.082  10.415 -0.36 -0.00    +0.001     3.185
ATOM     44  C57A3TL A 201      -8.628 -13.809  10.913 -0.36 +0.00    +0.000     3.185
ATOM     45  C58A3TL A 201      -8.173 -13.455  12.182 -0.34 +0.00    +0.001     3.185
ATOM     46  C59A3TL A 201      -7.484 -14.371  12.955 -0.37 +0.00    +0.007     3.185
ATOM     47  N51A3TL A 201      -7.991 -16.073  15.217 -0.07 +0.12    -0.352     3.185
ATOM     48  C61A3TL A 201      -9.284 -15.768  15.114 -0.22 -0.15    +0.241     3.185
ATOM     49  O52A3TL A 201     -10.052 -16.264  14.301 -0.24 +0.34    -0.271     3.185
ATOM     50  H51A3TL A 201      -7.435 -15.506  15.857 +0.10 -0.02    +0.163     3.185
ATOM     51  C60A3TL A 201      -9.737 -14.708  16.077 -0.29 -0.05    +0.180     3.185
ATOM     52  N52A3TL A 201     -10.712 -13.854  15.401 -0.14 +0.07    -0.346     3.185
ATOM     53  C69A3TL A 201     -10.452 -12.654  14.876 -0.25 +0.03    +0.240     3.185
ATOM     54  O54A3TL A 201      -9.434 -12.023  15.103 +0.27 -0.11    -0.271     3.185
ATOM     55  H52A3TL A 201     -11.668 -14.202  15.326 +0.09 -0.07    +0.163     3.185
ATOM     56  C68A3TL A 201     -11.541 -12.053  14.026 -0.38 +0.03    +0.174     3.185
ATOM     57  C70A3TL A 201     -12.894 -11.951  14.726 -0.52 +0.00    +0.042     3.185
ATOM     58  N54A3TL A 201     -11.696 -12.832  12.813 -0.10 -0.02    -0.324     3.185
ATOM     59  C81A3TL A 201     -11.638 -14.158  12.825 -0.13 -0.08    +0.361     3.185
ATOM     60  O58A3TL A 201     -11.392 -14.813  13.828 -0.24 +0.14    -0.238     3.185
ATOM     61  H54A3TL A 201     -11.855 -12.349  11.928 +0.10 +0.02    +0.165     3.185
ATOM     62  O59A3TL A 201     -11.854 -14.832  11.557 +0.33 +0.14    -0.299     3.185
ATOM     63  CA5A3TL A 201     -11.226 -14.354  10.368 -0.12 -0.04    +0.219     3.185
ATOM     64  C50A3TL A 201     -12.072 -13.309   9.672 -0.25 +0.00    -0.034     3.185
ATOM     65  C63A3TL A 201     -13.455 -13.323   9.859 -0.31 +0.00    +0.009     3.185
ATOM     66  C64A3TL A 201     -14.257 -12.361   9.242 -0.29 +0.00    +0.001     3.185
ATOM     67  C65A3TL A 201     -13.679 -11.383   8.437 -0.22 +0.00    +0.000     3.185
ATOM     68  C66A3TL A 201     -12.294 -11.366   8.258 -0.24 +0.00    +0.001     3.185
ATOM     69  C67A3TL A 201     -11.484 -12.323   8.878 +0.14 -0.00    +0.009     3.185
ATOM     70  C62A3TL A 201     -10.243 -15.304  17.404 -0.48 -0.00    +0.009     3.185
ATOM     71  CG5A3TL A 201      -9.072 -15.774  18.256 -0.41 -0.00    +0.012     3.185
ATOM     72  CG6A3TL A 201     -11.095 -14.322  18.222 -0.31 -0.00    +0.012     3.185
ATOM     73  O51A3TL A 201      -5.949 -19.010  15.059 -0.08 +0.05    -0.391     3.185
ATOM     74  H51A3TL A 201      -5.013 -19.077  14.913 +0.13 +0.04    +0.210     3.185
TER
ENDMDL
MODEL       10
USER    Run = 10
USER    Cluster Rank = 10
USER    Number of conformations in this cluster = 1
USER  
USER    RMSD from reference structure       = 2.876 A
USER  
USER    Estimated Free Energy of Binding    =  +69.43 kcal/mol  [=(1)+(2)+(3)-(4)]
USER    
USER    (1) Final Intermolecular Energy     =  +61.38 kcal/mol
USER        vdW + Hbond + desolv Energy     =  +62.16 kcal/mol
USER        Electrostatic Energy            =   -0.78 kcal/mol
USER    (2) Final Total Internal Energy     =  +34.35 kcal/mol
USER    (3) Torsional Free Energy           =   +8.05 kcal/mol
USER    (4) Unbound System's Energy  [=(2)] =  +34.35 kcal/mol
USER    
USER    
USER  
USER    DPF = dock.dpf
USER    NEWDPF move	lig2p3c.pdbqt
USER    NEWDPF about	-8.198000 -14.354000 13.542000
USER    NEWDPF tran0	-4.130783 -13.709111 17.809172
USER    NEWDPF axisangle0	-0.559820 -0.715396 0.418103 150.834479
USER    NEWDPF quaternion0	-0.541785 -0.692349 0.404634 0.251778
USER    NEWDPF dihe0	-80.26 162.73 165.26 144.45 150.34 151.48 49.09 133.28 -32.99 -56.29 104.64 178.73 108.59 8.61 55.06 -179.50 -137.03 -33.72 30.76 -149.20 -93.94 -95.31 -21.72 84.98 68.91 -21.50 20.00 
USER  
USER                              x       y       z    vdW   Elec        q     RMS 
ATOM      1  C2 A3TL A 201      -5.758 -14.996  19.651 +0.74 -0.02    +0.171     2.876
ATOM      2  C1 A3TL A 201      -4.353 -14.649  20.110 +2.98 +0.03    +0.120     2.876
ATOM      3  N1 A3TL A 201      -4.220 -14.875  21.532 -0.16 -0.12    -0.352     2.876
ATOM      4  C11A3TL A 201      -3.606 -14.007  22.324 +0.39 +0.13    +0.241     2.876
ATOM      5  O2 A3TL A 201      -3.165 -12.945  21.939 +3.58 -0.21    -0.271     2.876
ATOM      6  H1 A3TL A 201      -4.610 -15.726  21.937 +0.08 -0.01    +0.163     2.876
ATOM      7  C10A3TL A 201      -3.434 -14.437  23.743 -0.30 +0.09    +0.180     2.876
ATOM      8  N2 A3TL A 201      -3.742 -15.862  23.780 -0.13 -0.14    -0.346     2.876
ATOM      9  C19A3TL A 201      -4.818 -16.364  24.362 +1.06 +0.05    +0.240     2.876
ATOM     10  O4 A3TL A 201      -5.636 -15.672  24.935 +8.59 -0.31    -0.271     2.876
ATOM     11  H2 A3TL A 201      -3.092 -16.506  23.331 +0.06 +0.04    +0.163     2.876
ATOM     12  C18A3TL A 201      -4.967 -17.858  24.301 +0.16 -0.08    +0.174     2.876
ATOM     13  C20A3TL A 201      -5.136 -18.417  25.709 -0.20 +0.00    +0.042     2.876
ATOM     14  N4 A3TL A 201      -3.831 -18.475  23.639 +0.36 +0.12    -0.324     2.876
ATOM     15  C31A3TL A 201      -3.315 -18.000  22.501 +4.25 -0.18    +0.361     2.876
ATOM     16  O8 A3TL A 201      -3.709 -16.980  21.953 -0.12 +0.07    -0.238     2.876
ATOM     17  H4 A3TL A 201      -3.411 -19.304  24.058 -0.04 +0.03    +0.165     2.876
ATOM     18  O9 A3TL A 201      -2.239 -18.758  21.877 +1.28 -0.23    -0.299     2.876
ATOM     19  CA A3TL A 201      -0.877 -18.527  22.229 +0.06 +0.20    +0.219     2.876
ATOM     20  C  A3TL A 201      -0.094 -17.838  21.131 -0.06 -0.03    -0.034     2.876
ATOM     21  C13A3TL A 201       0.012 -18.459  19.877 -0.09 +0.01    +0.009     2.876
ATOM     22  C14A3TL A 201       0.707 -17.842  18.843 -0.09 +0.00    +0.001     2.876
ATOM     23  C15A3TL A 201       1.310 -16.599  19.058 -0.07 +0.00    +0.000     2.876
ATOM     24  C16A3TL A 201       1.205 -15.978  20.308 -0.07 +0.00    +0.001     2.876
ATOM     25  C17A3TL A 201       0.495 -16.600  21.345 -0.05 +0.00    +0.009     2.876
ATOM     26  C12A3TL A 201      -2.030 -14.152  24.273 -0.30 +0.00    +0.009     2.876
ATOM     27  CG1A3TL A 201      -1.519 -15.161  25.304 -0.15 +0.01    +0.012     2.876
ATOM     28  CG2A3TL A 201      -1.017 -14.015  23.141 -0.28 +0.01    +0.012     2.876
ATOM     29  C3 A3TL A 201      -3.319 -15.496  19.374 -0.06 +0.01    +0.066     2.876
ATOM     30  C4 A3TL A 201      -2.706 -14.657  18.286 +4.07 -0.01    -0.056     2.876
ATOM     31  C5 A3TL A 201      -3.074 -14.873  16.955 +2.43 +0.00    +0.007     2.876
ATOM     32  C6 A3TL A 201      -2.491 -14.093  15.958 +0.97 +0.00    +0.001     2.876
ATOM     33  C7 A3TL A 201      -1.553 -13.115  16.291 +0.07 +0.00    +0.000     2.876
ATOM     34  C8 A3TL A 201      -1.201 -12.899  17.619 +1.05 +0.00    +0.001     2.876
ATOM     35  C9 A3TL A 201      -1.782 -13.669  18.622 +4.35 +0.00    +0.007     2.876
ATOM     36  O1 A3TL A 201      -6.513 -15.231  20.819 -0.24 +0.02    -0.391     2.876
ATOM     37  H1 A3TL A 201      -7.006 -14.435  20.985 +0.15 +0.02    +0.210     2.876
ATOM     38  C52A3TL A 201      -6.481 -13.888  18.905 +7.52 -0.04    +0.171     2.876
ATOM     39  C51A3TL A 201      -6.403 -13.948  17.391+18.04 -0.04    +0.120     2.876
ATOM     40  C53A3TL A 201      -7.652 -13.193  16.947 +0.08 +0.01    +0.066     2.876
ATOM     41  C54A3TL A 201      -8.944 -13.905  17.246 -0.33 -0.00    -0.056     2.876
ATOM     42  C55A3TL A 201      -9.909 -13.314  18.048 +1.03 +0.00    +0.007     2.876
ATOM     43  C56A3TL A 201     -11.100 -13.976  18.318 -0.24 -0.00    +0.001     2.876
ATOM     44  C57A3TL A 201     -11.302 -15.231  17.771 +0.24 -0.00    +0.000     2.876
ATOM     45  C58A3TL A 201     -10.336 -15.814  16.953 -0.22 -0.00    +0.001     2.876
ATOM     46  C59A3TL A 201      -9.154 -15.147  16.689 -0.36 -0.00    +0.007     2.876
ATOM     47  N51A3TL A 201      -6.438 -15.356  17.014 -0.03 +0.04    -0.352     2.876
ATOM     48  C61A3TL A 201      -5.849 -16.364  17.655 -0.16 -0.02    +0.241     2.876
ATOM     49  O52A3TL A 201      -5.077 -16.233  18.597 -0.15 +0.02    -0.271     2.876
ATOM     50  H51A3TL A 201      -6.966 -15.593  16.174 +0.09 -0.01    +0.163     2.876
ATOM     51  C60A3TL A 201      -6.181 -17.718  17.097 +0.22 -0.03    +0.180     2.876
ATOM     52  N52A3TL A 201      -7.245 -17.563  16.106 +4.04 +0.21    -0.346     2.876
ATOM     53  C69A3TL A 201      -7.076 -17.125  14.856 -0.16 -0.09    +0.240     2.876
ATOM     54  O54A3TL A 201      -6.059 -16.577  14.463 -0.16 +0.02    -0.271     2.876
ATOM     55  H52A3TL A 201      -8.192 -17.810  16.393 -0.25 -0.18    +0.163     2.876
ATOM     56  C68A3TL A 201      -8.261 -17.267  13.938 -0.30 -0.17    +0.174     2.876
ATOM     57  C70A3TL A 201      -7.894 -17.477  12.471 +1.45 -0.06    +0.042     2.876
ATOM     58  N54A3TL A 201      -9.105 -16.092  14.048 -0.12 +0.24    -0.324     2.876
ATOM     59  C81A3TL A 201      -8.831 -14.975  13.386 -0.09 -0.08    +0.361     2.876
ATOM     60  O58A3TL A 201      -7.834 -14.829  12.694 -0.21 +0.00    -0.238     2.876
ATOM     61  H54A3TL A 201      -9.929 -16.126  14.649 -0.00 -0.18    +0.165     2.876
ATOM     62  O59A3TL A 201      -9.773 -13.880  13.538 -0.15 +0.01    -0.299     2.876
ATOM     63  CA5A3TL A 201      -9.581 -12.656  12.828 +0.39 +0.07    +0.219     2.876
ATOM     64  C50A3TL A 201     -10.432 -12.600  11.577 -0.08 -0.00    -0.034     2.876
ATOM     65  C63A3TL A 201     -10.081 -13.391  10.482 -0.23 -0.00    +0.009     2.876
ATOM     66  C64A3TL A 201     -10.857 -13.370   9.322 -0.24 -0.00    +0.001     2.876
ATOM     67  C65A3TL A 201     -11.986 -12.558   9.252 -0.24 +0.00    +0.000     2.876
ATOM     68  C66A3TL A 201     -12.339 -11.772  10.352 -0.24 +0.00    +0.001     2.876
ATOM     69  C67A3TL A 201     -11.570 -11.793  11.519 -0.27 +0.00    +0.009     2.876
ATOM     70  C62A3TL A 201      -4.936 -18.451  16.566 -0.36 +0.00    +0.009     2.876
ATOM     71  CG5A3TL A 201      -5.294 -19.296  15.352 -0.23 +0.00    +0.012     2.876
ATOM     72  CG6A3TL A 201      -3.787 -17.502  16.193 -0.29 +0.00    +0.012     2.876
ATOM     73  O51A3TL A 201      -7.857 -13.981  19.263 -0.26 -0.03    -0.391     2.876
ATOM     74  H51A3TL A 201      -7.986 -14.845  19.635 +0.16 +0.01    +0.210     2.876
TER
ENDMDL


AVSFLD: # AVS field file
AVSFLD: #
AVSFLD: # Created by AutoDock
AVSFLD: #
AVSFLD: ndim=2           # number of dimensions in the field
AVSFLD: nspace=1         # number of physical coordinates
AVSFLD: veclen=7         # vector size
AVSFLD: dim1=74          # atoms
AVSFLD: dim2=10          # conformations
AVSFLD: data=Real       # data type (byte,integer,Real,double)
AVSFLD: field=uniform    # field coordinate layout
AVSFLD: label= x y z vdW Elec q RMS
AVSFLD: variable 1 file = dock.dlg.pdb filetype = ascii offset = 5 stride = 12
AVSFLD: variable 2 file = dock.dlg.pdb filetype = ascii offset = 6 stride = 12
AVSFLD: variable 3 file = dock.dlg.pdb filetype = ascii offset = 7 stride = 12
AVSFLD: variable 4 file = dock.dlg.pdb filetype = ascii offset = 8 stride = 12
AVSFLD: variable 5 file = dock.dlg.pdb filetype = ascii offset = 9 stride = 12
AVSFLD: variable 6 file = dock.dlg.pdb filetype = ascii offset = 10 stride = 12
AVSFLD: variable 7 file = dock.dlg.pdb filetype = ascii offset = 11 stride = 12
AVSFLD: # end of file

>>> Closing the docking parameter file (DPF)...
This docking finished at:			0:22 54" a.m., 11/25/2025


________________________________________________________________________________

.\autodock4.exe: Successful Completion on "LAPTOP-PFTQOH6G"

Real= 1h 05m 54.22s,  CPU= 4m 54.34s,  System= 8.88s
________________________________________________________________________________

