REMARK  27 active torsions:
REMARK  status: ('A' for Active; 'I' for Inactive)
REMARK    1  A    between atoms: CA@A_1  and  C@A_3 
REMARK    2  A    between atoms: CA@A_1  and  O9@A_28 
REMARK    3  A    between atoms: CA5@A_2  and  C50@A_41 
REMARK    4  A    between atoms: CA5@A_2  and  O59@A_62 
REMARK    5  A    between atoms: C1@A_8  and  N1@A_9 
REMARK    6  A    between atoms: C1@A_8  and  C3@A_17 
REMARK    7  A    between atoms: C1@A_8  and  C2@A_13 
REMARK       I    between atoms: N1@A_9  and  C11@A_30 
REMARK    8  A    between atoms: O1@A_11  and  C2@A_13 
REMARK    9  A    between atoms: C2@A_13  and  C52@A_47 
REMARK   10  A    between atoms: N2@A_14  and  C10@A_29 
REMARK       I    between atoms: N2@A_14  and  C19@A_38 
REMARK   11  A    between atoms: C3@A_17  and  C4@A_18 
REMARK   12  A    between atoms: N4@A_19  and  C18@A_37 
REMARK       I    between atoms: N4@A_19  and  C31@A_40 
REMARK   13  A    between atoms: O9@A_28  and  C31@A_40 
REMARK   14  A    between atoms: C10@A_29  and  C11@A_30 
REMARK   15  A    between atoms: C10@A_29  and  C12@A_31 
REMARK   16  A    between atoms: C18@A_37  and  C19@A_38 
REMARK   17  A    between atoms: C51@A_42  and  C52@A_47 
REMARK   18  A    between atoms: C51@A_42  and  C53@A_51 
REMARK   19  A    between atoms: C51@A_42  and  N51@A_43 
REMARK       I    between atoms: N51@A_43  and  C61@A_64 
REMARK   20  A    between atoms: O51@A_45  and  C52@A_47 
REMARK   21  A    between atoms: N52@A_48  and  C60@A_63 
REMARK       I    between atoms: N52@A_48  and  C69@A_72 
REMARK   22  A    between atoms: C53@A_51  and  C54@A_52 
REMARK   23  A    between atoms: N54@A_53  and  C68@A_71 
REMARK       I    between atoms: N54@A_53  and  C81@A_74 
REMARK   24  A    between atoms: O59@A_62  and  C81@A_74 
REMARK   25  A    between atoms: C60@A_63  and  C61@A_64 
REMARK   26  A    between atoms: C60@A_63  and  C62@A_65 
REMARK   27  A    between atoms: C68@A_71  and  C69@A_72 
ROOT
HETATM    1  C2 A3TL A 201      -9.885 -16.546  13.755  0.50 23.53     0.171 C 
ENDROOT
BRANCH   1   2
HETATM    2  C1 A3TL A 201     -10.459 -15.308  13.089  0.50 24.03     0.120 C 
BRANCH   2   3
HETATM    3  N1 A3TL A 201     -10.462 -15.467  11.652  0.50 22.15    -0.352 N 
HETATM    4  C11A3TL A 201      -9.714 -14.709  10.863  0.50 20.71     0.241 C 
HETATM    5  O2 A3TL A 201      -8.937 -13.874  11.276  0.50 20.06    -0.271 OA
ATOM      6  H1 A3TL A 201     -11.056 -16.183  11.234  1.00  0.00     0.163 HD
BRANCH   4   7
HETATM    7  C10A3TL A 201      -9.920 -14.903   9.397  0.50 21.90     0.180 C 
BRANCH   7   8
HETATM    8  N2 A3TL A 201     -10.650 -13.732   8.927  0.50 22.74    -0.346 N 
HETATM    9  C19A3TL A 201     -11.612 -13.783   8.021  0.50 20.65     0.240 C 
HETATM   10  O4 A3TL A 201     -11.956 -14.820   7.489  0.50 20.58    -0.271 OA
ATOM     11  H2 A3TL A 201     -10.405 -12.823   9.319  1.00  0.00     0.163 HD
BRANCH   9  12
HETATM   12  C18A3TL A 201     -12.250 -12.472   7.659  0.50 21.31     0.174 C 
HETATM   13  C20A3TL A 201     -13.547 -12.297   8.442  0.50 21.62     0.042 C 
BRANCH  12  14
HETATM   14  N4 A3TL A 201     -12.499 -12.382   6.231  0.50 20.15    -0.324 N 
HETATM   15  C31A3TL A 201     -11.697 -11.707   5.401  0.50 21.29     0.361 C 
HETATM   16  O8 A3TL A 201     -10.662 -11.161   5.756  0.50 21.95    -0.238 OA
ATOM     17  H4 A3TL A 201     -13.318 -12.852   5.846  1.00  0.00     0.165 HD
BRANCH  15  18
HETATM   18  O9 A3TL A 201     -12.100 -11.604   4.005  0.50 21.63    -0.299 OA
BRANCH  18  19
HETATM   19  CA A3TL A 201     -11.518 -10.630   3.142  0.50 21.81     0.219 C 
BRANCH  19  20
HETATM   20  C  A3TL A 201     -12.050  -9.234   3.387  0.50 21.79    -0.034 A 
HETATM   21  C13A3TL A 201     -11.217  -8.133   3.134  0.50 21.75     0.009 A 
HETATM   22  C14A3TL A 201     -11.684  -6.838   3.331  0.50 21.99     0.001 A 
HETATM   23  C15A3TL A 201     -12.988  -6.634   3.791  0.50 22.18     0.000 A 
HETATM   24  C16A3TL A 201     -13.820  -7.730   4.043  0.50 21.95     0.001 A 
HETATM   25  C17A3TL A 201     -13.348  -9.034   3.835  0.50 21.80     0.009 A 
ENDBRANCH  19  20
ENDBRANCH  18  19
ENDBRANCH  15  18
ENDBRANCH  12  14
ENDBRANCH   9  12
ENDBRANCH   7   8
BRANCH   7  26
HETATM   26  C12A3TL A 201      -8.604 -15.086   8.642  0.50 22.73     0.009 C 
HETATM   27  CG1A3TL A 201      -7.635 -16.084   9.281  0.50 21.23     0.012 C 
HETATM   28  CG2A3TL A 201      -8.839 -15.460   7.182  0.50 23.06     0.012 C 
ENDBRANCH   7  26
ENDBRANCH   4   7
ENDBRANCH   2   3
BRANCH   2  29
HETATM   29  C3 A3TL A 201     -11.887 -15.052  13.563  0.50 23.17     0.066 C 
BRANCH  29  30
HETATM   30  C4 A3TL A 201     -12.207 -13.598  13.343  0.50 23.99    -0.056 A 
HETATM   31  C5 A3TL A 201     -13.021 -13.224  12.271  0.50 23.73     0.007 A 
HETATM   32  C6 A3TL A 201     -13.302 -11.873  12.076  0.50 25.44     0.001 A 
HETATM   33  C7 A3TL A 201     -12.772 -10.914  12.941  0.50 23.69     0.000 A 
HETATM   34  C8 A3TL A 201     -11.972 -11.297  14.012  0.50 24.33     0.001 A 
HETATM   35  C9 A3TL A 201     -11.691 -12.644  14.218  0.50 23.60     0.007 A 
ENDBRANCH  29  30
ENDBRANCH   2  29
ENDBRANCH   1   2
BRANCH   1  36
HETATM   36  O1 A3TL A 201     -10.717 -17.622  13.381  0.50 25.08    -0.391 OA
ATOM     37  H1 A3TL A 201     -10.358 -18.397  13.798  1.00  0.00     0.210 HD
ENDBRANCH   1  36
BRANCH   1  38
HETATM   38  C52A3TL A 201      -8.486 -16.926  13.304  0.50 25.46     0.171 C 
BRANCH  38  39
HETATM   39  C51A3TL A 201      -7.358 -16.073  13.853  0.50 25.56     0.120 C 
BRANCH  39  40
HETATM   40  C53A3TL A 201      -6.107 -16.749  13.300  0.50 27.60     0.066 C 
BRANCH  40  41
HETATM   41  C54A3TL A 201      -4.815 -16.180  13.823  0.50 27.75    -0.056 A 
HETATM   42  C55A3TL A 201      -4.419 -16.408  15.132  0.50 28.96     0.007 A 
HETATM   43  C56A3TL A 201      -3.224 -15.882  15.607  0.50 30.14     0.001 A 
HETATM   44  C57A3TL A 201      -2.441 -15.130  14.749  0.50 29.53     0.000 A 
HETATM   45  C58A3TL A 201      -2.836 -14.917  13.429  0.50 30.00     0.001 A 
HETATM   46  C59A3TL A 201      -4.026 -15.446  12.965  0.50 27.96     0.007 A 
ENDBRANCH  40  41
ENDBRANCH  39  40
BRANCH  39  47
HETATM   47  N51A3TL A 201      -7.434 -16.142  15.307  0.50 25.08    -0.352 N 
HETATM   48  C61A3TL A 201      -7.554 -15.113  16.145  0.50 23.99     0.241 C 
HETATM   49  O52A3TL A 201      -7.489 -13.936  15.814  0.50 24.43    -0.271 OA
ATOM     50  H51A3TL A 201      -7.391 -17.071  15.725  1.00  0.00     0.163 HD
BRANCH  48  51
HETATM   51  C60A3TL A 201      -7.744 -15.515  17.579  0.50 25.01     0.180 C 
BRANCH  51  52
HETATM   52  N52A3TL A 201      -6.428 -15.708  18.186  0.50 25.81    -0.346 N 
HETATM   53  C69A3TL A 201      -6.069 -16.758  18.930  0.50 24.47     0.240 C 
HETATM   54  O54A3TL A 201      -6.861 -17.563  19.390  0.50 23.91    -0.271 OA
ATOM     55  H52A3TL A 201      -5.728 -14.983  18.029  1.00  0.00     0.163 HD
BRANCH  53  56
HETATM   56  C68A3TL A 201      -4.603 -16.867  19.257  0.50 25.59     0.174 C 
HETATM   57  C70A3TL A 201      -3.920 -18.095  18.659  0.50 23.19     0.042 C 
BRANCH  56  58
HETATM   58  N54A3TL A 201      -4.425 -16.884  20.696  0.50 25.74    -0.324 N 
HETATM   59  C81A3TL A 201      -4.089 -15.789  21.368  0.50 26.08     0.361 C 
HETATM   60  O58A3TL A 201      -3.848 -14.717  20.833  0.50 26.09    -0.238 OA
ATOM     61  H54A3TL A 201      -4.561 -17.758  21.204  1.00  0.00     0.165 HD
BRANCH  59  62
HETATM   62  O59A3TL A 201      -3.985 -15.917  22.811  0.50 27.11    -0.299 OA
BRANCH  62  63
HETATM   63  CA5A3TL A 201      -3.495 -14.833  23.600  0.50 27.41     0.219 C 
BRANCH  63  64
HETATM   64  C50A3TL A 201      -1.983 -14.763  23.571  0.50 27.98    -0.034 A 
HETATM   65  C63A3TL A 201      -1.357 -13.535  23.790  0.50 26.63     0.009 A 
HETATM   66  C64A3TL A 201       0.036 -13.446  23.784  0.50 27.63     0.001 A 
HETATM   67  C65A3TL A 201       0.808 -14.583  23.560  0.50 27.20     0.000 A 
HETATM   68  C66A3TL A 201       0.179 -15.812  23.349  0.50 28.19     0.001 A 
HETATM   69  C67A3TL A 201      -1.216 -15.910  23.359  0.50 27.18     0.009 A 
ENDBRANCH  63  64
ENDBRANCH  62  63
ENDBRANCH  59  62
ENDBRANCH  56  58
ENDBRANCH  53  56
ENDBRANCH  51  52
BRANCH  51  70
HETATM   70  C62A3TL A 201      -8.646 -14.530  18.346  0.50 26.20     0.009 C 
HETATM   71  CG5A3TL A 201     -10.084 -14.637  17.859  0.50 24.92     0.012 C 
HETATM   72  CG6A3TL A 201      -8.616 -14.741  19.867  0.50 25.77     0.012 C 
ENDBRANCH  51  70
ENDBRANCH  48  51
ENDBRANCH  39  47
ENDBRANCH  38  39
BRANCH  38  73
HETATM   73  O51A3TL A 201      -8.260 -18.262  13.746  0.50 24.73    -0.391 OA
ATOM     74  H51A3TL A 201      -7.385 -18.500  13.464  1.00  0.00     0.210 HD
ENDBRANCH  38  73
ENDBRANCH   1  38
TORSDOF 27
