          AutoDock 4.2 Release 4.2.6   
         (C) 1989-2012 The Scripps Research Institute
        AutoDock comes with ABSOLUTELY NO WARRANTY.
        AutoDock is free software, and you are welcome
        to redistribute it under certain conditions;
        for details type 'autodock4 -C'

                     main.cc  $Revision: 1.213 $

                   Compiled on Jul 18 2014 at 15:34:58


This file was created at:			8:41 59" p.m., 11/24/2025
                   on host:		"LAPTOP-PFTQOH6G"
Current Working Directory = "C:\Program Files (x86)\Docking\November 25\2411 Docking\1BAI"

      ________________________________________________________________

                   SETTING UP DEFAULT PARAMETER LIBRARY
      ________________________________________________________________


Random number generator was seeded with values 19996, 1764006119.
Docking parameter file (DPF) used for this docking:		dock.dpf
DPF> autodock_parameter_version 4.2       # used by autodock to validate parameter set

	Autodock parameter version 4.2.
DPF> outlev 1                             # diagnostic output level

Output Level = 1  ADT-COMPATIBLE OUTPUT DURING DOCKING.
DPF> intelec                              # calculate internal electrostatics

Electrostatic energies will be calculated for all non-bonds between moving atoms.
DPF> seed pid time                        # seeds for random generator

Random number generator was seeded with values 19996, 1764006119.
DPF> ligand_types A C HD OA N             # atoms types in ligand

DPF> fld 1bai.maps.fld                    # grid_data_file

Opening Grid Map Dimensions file:		1bai.maps.fld
Grid Point Spacing =				0.375 Angstroms

Even Number of User-specified Grid Points =	72 x-points
						28 y-points
						40 z-points

Coordinates of Central Grid Point of Maps =	(-2.904, 16.891, 35.058)
Macromolecule file used to create Grid Maps =	1bai.pdbqt
Grid Parameter file used to create Grid Maps =	grid.gpf
Minimum coordinates in grid = (-16.404, 11.641, 27.558)
Maximum coordinates in grid = (10.596, 22.141, 42.558)

DPF> map 1bai.A.map                       # atom-specific affinity map

DPF> map 1bai.C.map                       # atom-specific affinity map

DPF> map 1bai.HD.map                      # atom-specific affinity map

DPF> map 1bai.OA.map                      # atom-specific affinity map

DPF> map 1bai.N.map                       # atom-specific affinity map

DPF> elecmap 1bai.e.map                   # electrostatics map

DPF> desolvmap 1bai.d.map                 # desolvation map

DPF> move lig1bai.pdbqt                   # small molecule

1,4-interactions will be _ignored_ in the non-bonded internal energy calculation.

Ligand PDBQT file = "lig1bai.pdbqt"

INPUT LIGAND PDBQT FILE:
________________________

INPUT-LIGAND-PDBQT: REMARK  29 active torsions:
INPUT-LIGAND-PDBQT: REMARK  status: ('A' for Active; 'I' for Inactive)
INPUT-LIGAND-PDBQT: REMARK    1  A    between atoms: N_1  and  CA_2 
INPUT-LIGAND-PDBQT: REMARK    2  A    between atoms: CA_2  and  C_9 
INPUT-LIGAND-PDBQT: REMARK    3  A    between atoms: CA_2  and  CB_11 
INPUT-LIGAND-PDBQT: REMARK    4  A    between atoms: CA1_3  and  CB1_12 
INPUT-LIGAND-PDBQT: REMARK    5  A    between atoms: CA1_3  and  C1_42 
INPUT-LIGAND-PDBQT: REMARK    6  A    between atoms: CA1_3  and  N1_43 
INPUT-LIGAND-PDBQT: REMARK    7  A    between atoms: CA2_4  and  CB2_13 
INPUT-LIGAND-PDBQT: REMARK    8  A    between atoms: CA2_4  and  C2_45 
INPUT-LIGAND-PDBQT: REMARK    9  A    between atoms: CA2_4  and  N2_46 
INPUT-LIGAND-PDBQT: REMARK   10  A    between atoms: CA3_5  and  CB3_14 
INPUT-LIGAND-PDBQT: REMARK   11  A    between atoms: CA3_5  and  C3_48 
INPUT-LIGAND-PDBQT: REMARK   12  A    between atoms: CA3_5  and  N3_49 
INPUT-LIGAND-PDBQT: REMARK   13  A    between atoms: CA4_6  and  CB4_15 
INPUT-LIGAND-PDBQT: REMARK   14  A    between atoms: CA4_6  and  C4_51 
INPUT-LIGAND-PDBQT: REMARK   15  A    between atoms: CA4_6  and  N4_52 
INPUT-LIGAND-PDBQT: REMARK   16  A    between atoms: CA5_7  and  C5_54 
INPUT-LIGAND-PDBQT: REMARK   17  A    between atoms: CA5_7  and  N5_55 
INPUT-LIGAND-PDBQT: REMARK   18  A    between atoms: CA6_8  and  CB6_17 
INPUT-LIGAND-PDBQT: REMARK   19  A    between atoms: CA6_8  and  C6_57 
INPUT-LIGAND-PDBQT: REMARK   20  A    between atoms: CA6_8  and  N6_58 
INPUT-LIGAND-PDBQT: REMARK       I    between atoms: C_9  and  N1_43 
INPUT-LIGAND-PDBQT: REMARK   21  A    between atoms: CB_11  and  CG_18 
INPUT-LIGAND-PDBQT: REMARK   22  A    between atoms: CB2_13  and  CG3_21 
INPUT-LIGAND-PDBQT: REMARK   23  A    between atoms: CB3_14  and  CG4_22 
INPUT-LIGAND-PDBQT: REMARK   24  A    between atoms: CB4_15  and  CG5_23 
INPUT-LIGAND-PDBQT: REMARK   25  A    between atoms: CB6_17  and  CG6_24 
INPUT-LIGAND-PDBQT: REMARK   26  A    between atoms: CG_18  and  CD_25 
INPUT-LIGAND-PDBQT: REMARK   27  A    between atoms: CG5_23  and  CD3_30 
INPUT-LIGAND-PDBQT: REMARK   28  A    between atoms: CG6_24  and  CD4_31 
INPUT-LIGAND-PDBQT: REMARK   29  A    between atoms: CD_25  and  NE_35 
INPUT-LIGAND-PDBQT: REMARK       I    between atoms: NE_35  and  CZ_38 
INPUT-LIGAND-PDBQT: REMARK       I    between atoms: CZ_38  and  NH1_40 
INPUT-LIGAND-PDBQT: REMARK       I    between atoms: C1_42  and  N2_46 
INPUT-LIGAND-PDBQT: REMARK       I    between atoms: C3_48  and  N4_52 
INPUT-LIGAND-PDBQT: REMARK       I    between atoms: C4_51  and  N5_55 
INPUT-LIGAND-PDBQT: REMARK       I    between atoms: C5_54  and  N6_58 
INPUT-LIGAND-PDBQT: REMARK       I    between atoms: C6_57  and  N7_59 
INPUT-LIGAND-PDBQT: ROOT
INPUT-LIGAND-PDBQT: HETATM    1  CA3 0Q4 A 125      -1.344  17.561  32.290  1.00 16.89     0.177 C 
INPUT-LIGAND-PDBQT: ENDROOT
INPUT-LIGAND-PDBQT: BRANCH   1   2
INPUT-LIGAND-PDBQT: HETATM    2  CB3 0Q4 A 125      -0.977  17.480  30.778  1.00 18.22     0.073 C 
INPUT-LIGAND-PDBQT: BRANCH   2   3
INPUT-LIGAND-PDBQT: HETATM    3  CG4 0Q4 A 125      -2.103  17.174  29.871  1.00 21.59    -0.056 A 
INPUT-LIGAND-PDBQT: HETATM    4  CD1 0Q4 A 125      -2.597  15.881  29.766  1.00 22.99     0.007 A 
INPUT-LIGAND-PDBQT: HETATM    5  CE1 0Q4 A 125      -3.703  15.588  28.935  1.00 24.00     0.001 A 
INPUT-LIGAND-PDBQT: HETATM    6  CZ1 0Q4 A 125      -4.316  16.604  28.194  1.00 25.64     0.000 A 
INPUT-LIGAND-PDBQT: HETATM    7  CE2 0Q4 A 125      -3.823  17.905  28.283  1.00 27.27     0.001 A 
INPUT-LIGAND-PDBQT: HETATM    8  CD2 0Q4 A 125      -2.708  18.184  29.130  1.00 24.65     0.007 A 
INPUT-LIGAND-PDBQT: ENDBRANCH   2   3
INPUT-LIGAND-PDBQT: ENDBRANCH   1   2
INPUT-LIGAND-PDBQT: BRANCH   1   9
INPUT-LIGAND-PDBQT: HETATM    9  C3  0Q4 A 125      -2.452  16.588  32.781  1.00 15.06     0.241 C 
INPUT-LIGAND-PDBQT: HETATM   10  O2  0Q4 A 125      -2.205  15.388  32.924  1.00 12.51    -0.271 OA
INPUT-LIGAND-PDBQT: HETATM   11  N4  0Q4 A 125      -3.615  17.134  33.138  1.00 14.54    -0.346 N 
INPUT-LIGAND-PDBQT: HETATM   12  H4  0Q4 A 125      -3.768  18.094  33.000  1.00 15.00     0.163 HD
INPUT-LIGAND-PDBQT: BRANCH  11  13
INPUT-LIGAND-PDBQT: HETATM   13  CA4 0Q4 A 125      -4.726  16.356  33.693  1.00 15.81     0.177 C 
INPUT-LIGAND-PDBQT: BRANCH  13  14
INPUT-LIGAND-PDBQT: HETATM   14  CB4 0Q4 A 125      -4.749  16.528  35.238  1.00 17.07     0.045 C 
INPUT-LIGAND-PDBQT: BRANCH  14  15
INPUT-LIGAND-PDBQT: HETATM   15  CG5 0Q4 A 125      -5.782  15.732  36.012  1.00 18.50     0.116 C 
INPUT-LIGAND-PDBQT: BRANCH  15  16
INPUT-LIGAND-PDBQT: HETATM   16  CD3 0Q4 A 125      -7.133  16.453  36.133  1.00 26.68     0.172 C 
INPUT-LIGAND-PDBQT: HETATM   17  OE1 0Q4 A 125      -7.141  17.657  36.450  1.00 29.71    -0.648 OA
INPUT-LIGAND-PDBQT: HETATM   18  OE2 0Q4 A 125      -8.204  15.829  35.910  1.00 31.35    -0.648 OA
INPUT-LIGAND-PDBQT: ENDBRANCH  15  16
INPUT-LIGAND-PDBQT: ENDBRANCH  14  15
INPUT-LIGAND-PDBQT: ENDBRANCH  13  14
INPUT-LIGAND-PDBQT: BRANCH  13  19
INPUT-LIGAND-PDBQT: HETATM   19  C4  0Q4 A 125      -6.111  16.673  33.120  1.00 17.52     0.241 C 
INPUT-LIGAND-PDBQT: HETATM   20  O3  0Q4 A 125      -6.534  17.828  33.035  1.00 17.50    -0.271 OA
INPUT-LIGAND-PDBQT: HETATM   21  N5  0Q4 A 125      -6.878  15.624  32.875  1.00 19.61    -0.346 N 
INPUT-LIGAND-PDBQT: HETATM   22  H5  0Q4 A 125      -6.553  14.715  33.060  1.00 15.00     0.163 HD
INPUT-LIGAND-PDBQT: BRANCH  21  23
INPUT-LIGAND-PDBQT: HETATM   23  CA5 0Q4 A 125      -8.207  15.787  32.326  1.00 21.82     0.172 C 
INPUT-LIGAND-PDBQT: HETATM   24  CB5 0Q4 A 125      -8.114  15.709  30.814  1.00 22.24     0.042 C 
INPUT-LIGAND-PDBQT: BRANCH  23  25
INPUT-LIGAND-PDBQT: HETATM   25  C5  0Q4 A 125      -9.293  14.800  32.823  1.00 24.09     0.240 C 
INPUT-LIGAND-PDBQT: HETATM   26  O4  0Q4 A 125      -9.026  13.635  33.125  1.00 20.88    -0.271 OA
INPUT-LIGAND-PDBQT: HETATM   27  N6  0Q4 A 125     -10.526  15.295  32.840  1.00 27.66    -0.346 N 
INPUT-LIGAND-PDBQT: HETATM   28  H6  0Q4 A 125     -10.653  16.214  32.548  1.00 15.00     0.163 HD
INPUT-LIGAND-PDBQT: BRANCH  27  29
INPUT-LIGAND-PDBQT: HETATM   29  CA6 0Q4 A 125     -11.710  14.522  33.191  1.00 31.09     0.176 C 
INPUT-LIGAND-PDBQT: BRANCH  29  30
INPUT-LIGAND-PDBQT: HETATM   30  CB6 0Q4 A 125     -12.964  15.412  32.992  1.00 32.55     0.035 C 
INPUT-LIGAND-PDBQT: BRANCH  30  31
INPUT-LIGAND-PDBQT: HETATM   31  CG6 0Q4 A 125     -14.314  14.697  32.633  1.00 32.73     0.002 C 
INPUT-LIGAND-PDBQT: BRANCH  31  32
INPUT-LIGAND-PDBQT: HETATM   32  CD4 0Q4 A 125     -14.579  14.530  31.085  1.00 31.59    -0.004 C 
INPUT-LIGAND-PDBQT: HETATM   33  CE  0Q4 A 125     -15.682  13.524  30.828  1.00 23.29     0.005 C 
INPUT-LIGAND-PDBQT: ENDBRANCH  31  32
INPUT-LIGAND-PDBQT: ENDBRANCH  30  31
INPUT-LIGAND-PDBQT: ENDBRANCH  29  30
INPUT-LIGAND-PDBQT: BRANCH  29  34
INPUT-LIGAND-PDBQT: HETATM   34  C6  0Q4 A 125     -11.748  13.334  32.215  1.00 33.78     0.238 C 
INPUT-LIGAND-PDBQT: HETATM   35  O5  0Q4 A 125     -11.875  12.152  32.650  1.00 34.60    -0.271 OA
INPUT-LIGAND-PDBQT: HETATM   36  N7  0Q4 A 125     -11.613  13.610  30.997  1.00 36.53    -0.368 N 
INPUT-LIGAND-PDBQT: ATOM     37  H72 0Q4 A 125     -11.511  14.562  30.646  1.00  0.00     0.159 HD
INPUT-LIGAND-PDBQT: ATOM     38  H71 0Q4 A 125     -11.638  12.822  30.350  1.00  0.00     0.159 HD
INPUT-LIGAND-PDBQT: ENDBRANCH  29  34
INPUT-LIGAND-PDBQT: ENDBRANCH  27  29
INPUT-LIGAND-PDBQT: ENDBRANCH  23  25
INPUT-LIGAND-PDBQT: ENDBRANCH  21  23
INPUT-LIGAND-PDBQT: ENDBRANCH  13  19
INPUT-LIGAND-PDBQT: ENDBRANCH  11  13
INPUT-LIGAND-PDBQT: ENDBRANCH   1   9
INPUT-LIGAND-PDBQT: BRANCH   1  39
INPUT-LIGAND-PDBQT: HETATM   39  N3  0Q4 A 125      -0.141  17.196  33.047  1.00 16.64    -0.387 N 
INPUT-LIGAND-PDBQT: HETATM   40  C2  0Q4 A 125      -0.003  17.405  34.344  1.00 17.56     0.081 C 
INPUT-LIGAND-PDBQT: HETATM   41  H3  0Q4 A 125       0.591  16.758  32.572  1.00 15.00     0.159 HD
INPUT-LIGAND-PDBQT: BRANCH  40  42
INPUT-LIGAND-PDBQT: HETATM   42  CA2 0Q4 A 125       1.302  16.914  34.957  1.00 17.96     0.123 C 
INPUT-LIGAND-PDBQT: BRANCH  42  43
INPUT-LIGAND-PDBQT: HETATM   43  CB2 0Q4 A 125       1.490  17.417  36.409  1.00 19.32     0.034 C 
INPUT-LIGAND-PDBQT: BRANCH  43  44
INPUT-LIGAND-PDBQT: HETATM   44  CG3 0Q4 A 125       2.859  17.069  37.059  1.00 21.12    -0.020 C 
INPUT-LIGAND-PDBQT: HETATM   45  CD1 0Q4 A 125       3.007  17.622  38.476  1.00 21.22     0.009 C 
INPUT-LIGAND-PDBQT: HETATM   46  CD2 0Q4 A 125       3.060  15.565  37.071  1.00 17.47     0.009 C 
INPUT-LIGAND-PDBQT: ENDBRANCH  43  44
INPUT-LIGAND-PDBQT: ENDBRANCH  42  43
INPUT-LIGAND-PDBQT: BRANCH  42  47
INPUT-LIGAND-PDBQT: HETATM   47  N2  0Q4 A 125       2.510  17.166  34.194  1.00 17.78    -0.350 N 
INPUT-LIGAND-PDBQT: HETATM   48  C1  0Q4 A 125       2.998  16.256  33.370  1.00 17.14     0.241 C 
INPUT-LIGAND-PDBQT: HETATM   49  O1  0Q4 A 125       2.367  15.241  33.103  1.00 18.87    -0.271 OA
INPUT-LIGAND-PDBQT: HETATM   50  HN2 0Q4 A 125       2.990  18.014  34.326  1.00 15.00     0.163 HD
INPUT-LIGAND-PDBQT: BRANCH  48  51
INPUT-LIGAND-PDBQT: HETATM   51  CA1 0Q4 A 125       4.334  16.617  32.670  1.00 18.90     0.180 C 
INPUT-LIGAND-PDBQT: BRANCH  51  52
INPUT-LIGAND-PDBQT: HETATM   52  CB1 0Q4 A 125       4.330  16.367  31.075  1.00 19.28     0.009 C 
INPUT-LIGAND-PDBQT: HETATM   53  CG1 0Q4 A 125       3.098  16.981  30.406  1.00 20.08     0.012 C 
INPUT-LIGAND-PDBQT: HETATM   54  CG2 0Q4 A 125       5.579  16.993  30.422  1.00 19.54     0.012 C 
INPUT-LIGAND-PDBQT: ENDBRANCH  51  52
INPUT-LIGAND-PDBQT: BRANCH  51  55
INPUT-LIGAND-PDBQT: HETATM   55  N1  0Q4 A 125       5.477  15.939  33.284  1.00 19.10    -0.346 N 
INPUT-LIGAND-PDBQT: HETATM   56  C   0Q4 A 125       6.583  16.583  33.691  1.00 21.89     0.249 C 
INPUT-LIGAND-PDBQT: HETATM   57  O   0Q4 A 125       6.732  17.813  33.564  1.00 22.48    -0.271 OA
INPUT-LIGAND-PDBQT: HETATM   58  H1  0Q4 A 125       5.375  14.971  33.407  1.00 15.00     0.163 HD
INPUT-LIGAND-PDBQT: BRANCH  56  59
INPUT-LIGAND-PDBQT: HETATM   59  CA  0Q4 A 125       7.738  15.704  34.269  1.00 21.76     0.274 C 
INPUT-LIGAND-PDBQT: BRANCH  59  60
INPUT-LIGAND-PDBQT: HETATM   60  N   0Q4 A 125       9.011  16.052  33.566  1.00 21.27    -0.067 N 
INPUT-LIGAND-PDBQT: HETATM   61  H   0Q4 A 125       8.921  15.936  32.547  1.00 15.00     0.275 HD
INPUT-LIGAND-PDBQT: HETATM   62  H2  0Q4 A 125       9.206  17.055  33.813  1.00 15.00     0.275 HD
INPUT-LIGAND-PDBQT: HETATM   63  HN3 0Q4 A 125       9.782  15.453  33.901  1.00 15.00     0.275 HD
INPUT-LIGAND-PDBQT: ENDBRANCH  59  60
INPUT-LIGAND-PDBQT: BRANCH  59  64
INPUT-LIGAND-PDBQT: HETATM   64  CB  0Q4 A 125       7.933  15.891  35.779  1.00 21.80     0.044 C 
INPUT-LIGAND-PDBQT: BRANCH  64  65
INPUT-LIGAND-PDBQT: HETATM   65  CG  0Q4 A 125       6.774  15.395  36.710  1.00 26.69     0.023 C 
INPUT-LIGAND-PDBQT: BRANCH  65  66
INPUT-LIGAND-PDBQT: HETATM   66  CD  0Q4 A 125       6.949  13.961  37.323  1.00 29.76     0.138 C 
INPUT-LIGAND-PDBQT: BRANCH  66  67
INPUT-LIGAND-PDBQT: HETATM   67  NE  0Q4 A 125       7.449  13.937  38.704  1.00 32.26    -0.227 N 
INPUT-LIGAND-PDBQT: HETATM   68  CZ  0Q4 A 125       6.771  14.379  39.766  1.00 34.72     0.665 C 
INPUT-LIGAND-PDBQT: HETATM   69  NH1 0Q4 A 125       5.552  14.865  39.602  1.00 35.07    -0.235 N 
INPUT-LIGAND-PDBQT: HETATM   70  NH2 0Q4 A 125       7.354  14.451  40.972  1.00 35.86    -0.235 N 
INPUT-LIGAND-PDBQT: HETATM   71 HH11 0Q4 A 125       5.142  14.896  38.692  1.00 15.00     0.174 HD
INPUT-LIGAND-PDBQT: HETATM   72 HH12 0Q4 A 125       5.035  15.199  40.392  1.00 15.00     0.174 HD
INPUT-LIGAND-PDBQT: HETATM   73 HH21 0Q4 A 125       8.305  14.172  41.093  1.00 15.00     0.174 HD
INPUT-LIGAND-PDBQT: HETATM   74 HH22 0Q4 A 125       6.826  14.788  41.754  1.00 15.00     0.174 HD
INPUT-LIGAND-PDBQT: HETATM   75  HE  0Q4 A 125       8.347  13.573  38.870  1.00 15.00     0.177 HD
INPUT-LIGAND-PDBQT: ENDBRANCH  66  67
INPUT-LIGAND-PDBQT: ENDBRANCH  65  66
INPUT-LIGAND-PDBQT: ENDBRANCH  64  65
INPUT-LIGAND-PDBQT: ENDBRANCH  59  64
INPUT-LIGAND-PDBQT: ENDBRANCH  56  59
INPUT-LIGAND-PDBQT: ENDBRANCH  51  55
INPUT-LIGAND-PDBQT: ENDBRANCH  48  51
INPUT-LIGAND-PDBQT: ENDBRANCH  42  47
INPUT-LIGAND-PDBQT: ENDBRANCH  40  42
INPUT-LIGAND-PDBQT: ENDBRANCH   1  39
INPUT-LIGAND-PDBQT: TORSDOF 29
________________________________________________________________________________

Total charge on ligand                               =	+1.006 e
REMARK  29 active torsions:
REMARK  status: ('A' for Active; 'I' for Inactive)
REMARK    1  A    between atoms: N_1  and  CA_2 
REMARK    2  A    between atoms: CA_2  and  C_9 
REMARK    3  A    between atoms: CA_2  and  CB_11 
REMARK    4  A    between atoms: CA1_3  and  CB1_12 
REMARK    5  A    between atoms: CA1_3  and  C1_42 
REMARK    6  A    between atoms: CA1_3  and  N1_43 
REMARK    7  A    between atoms: CA2_4  and  CB2_13 
REMARK    8  A    between atoms: CA2_4  and  C2_45 
REMARK    9  A    between atoms: CA2_4  and  N2_46 
REMARK   10  A    between atoms: CA3_5  and  CB3_14 
REMARK   11  A    between atoms: CA3_5  and  C3_48 
REMARK   12  A    between atoms: CA3_5  and  N3_49 
REMARK   13  A    between atoms: CA4_6  and  CB4_15 
REMARK   14  A    between atoms: CA4_6  and  C4_51 
REMARK   15  A    between atoms: CA4_6  and  N4_52 
REMARK   16  A    between atoms: CA5_7  and  C5_54 
REMARK   17  A    between atoms: CA5_7  and  N5_55 
REMARK   18  A    between atoms: CA6_8  and  CB6_17 
REMARK   19  A    between atoms: CA6_8  and  C6_57 
REMARK   20  A    between atoms: CA6_8  and  N6_58 
REMARK       I    between atoms: C_9  and  N1_43 
REMARK   21  A    between atoms: CB_11  and  CG_18 
REMARK   22  A    between atoms: CB2_13  and  CG3_21 
REMARK   23  A    between atoms: CB3_14  and  CG4_22 
REMARK   24  A    between atoms: CB4_15  and  CG5_23 
REMARK   25  A    between atoms: CB6_17  and  CG6_24 
REMARK   26  A    between atoms: CG_18  and  CD_25 
REMARK   27  A    between atoms: CG5_23  and  CD3_30 
REMARK   28  A    between atoms: CG6_24  and  CD4_31 
REMARK   29  A    between atoms: CD_25  and  NE_35 
REMARK       I    between atoms: NE_35  and  CZ_38 
REMARK       I    between atoms: CZ_38  and  NH1_40 
REMARK       I    between atoms: C1_42  and  N2_46 
REMARK       I    between atoms: C3_48  and  N4_52 
REMARK       I    between atoms: C4_51  and  N5_55 
REMARK       I    between atoms: C5_54  and  N6_58 
REMARK       I    between atoms: C6_57  and  N7_59 


Number of Rotatable Bonds in Small Molecule =	29 torsions
Number of atoms in ligand:  75

Number of non-hydrogen atoms in ligand:  59

Number of vibrational degrees of freedom of ligand:  219


Number of torsional degrees of freedom = 29
Estimated loss of torsional free energy upon binding = +8.6507 kcal/mol


DPF> about -1.190 15.842 33.892            # small molecule center

Small molecule center of rotation =	(-1.190, +15.842, +33.892)

DPF> tran0 random                         # initial coordinates/A or random

Initial translation =			(4.256, 14.430, 39.704) Angstroms
DPF> quaternion0 random                   # initial orientation

Each run will begin with a new, random initial orientation.
Initial quaternion,  (x,y,z,w) =	( -0.164, -0.398, -0.895, -0.122 ),
DPF> dihe0 random                         # initial dihedrals (relative) or random

DPF> torsdof 29                            # torsional degrees of freedom

Number of torsional degrees of freedom = 29
Free energy coefficient for torsional degrees of freedom = 0.2983, the factory default value.

Estimated loss of torsional free energy upon binding = +8.6507 kcal/mol

DPF> rmstol 2.0                           # cluster_tolerance/A

Maximum RMS tolerance for conformational cluster analysis = 2.00 Angstroms
DPF> extnrg 1000.0                        # external grid energy

External grid energy (beyond grid map walls) = 1000.00

DPF> e0max 0.0 10000                      # max initial energy; max number of retries

Using user-specified maximum number of retries for simanneal initialization, 10000 retries.
If the simanneal initial energy is greater than e0max, 0.000,
then a new, random initial state will be created.

DPF> ga_pop_size 150                      # number of individuals in population

A population of 150 individuals will be used
DPF> ga_num_evals 2500000                 # maximum number of energy evaluations

There will be at most 2500000 function evaluations used.
DPF> ga_num_generations 27000             # maximum number of generations

The GA will run for at most 27000 generations.
DPF> ga_elitism 1                         # number of top individuals to survive to next generation

The 1 best will be preserved each GA generation.
DPF> ga_mutation_rate 0.02                # rate of gene mutation

The mutation rate is 0.020000.
DPF> ga_crossover_rate 0.8                # rate of crossover

The crossover rate is 0.800000.
DPF> ga_window_size 10                    # 

The GA's selection window is 10 generations.
DPF> ga_cauchy_alpha 0.0                  # Alpha parameter of Cauchy distribution

The alpha parameter (for the Cauchy distribution) is being set to 0.000000.
DPF> ga_cauchy_beta 1.0                   # Beta parameter Cauchy distribution

The beta parameter (for the Cauchy distribution) is being set to 1.000000.
DPF> set_ga                               # set the above parameters for GA or LGA

DPF> sw_max_its 300                       # iterations of Solis & Wets local search

Solis & Wets algorithms will perform at most 300 iterations.
DPF> sw_max_succ 4                        # consecutive successes before changing rho

Solis & Wets algorithms expand rho every 4 in a row successes.
DPF> sw_max_fail 4                        # consecutive failures before changing rho

Solis & Wets algorithms contract rho every 4 in a row failures.
DPF> sw_rho 1.0                           # size of local search space to sample

rho is set to 1.000000.
DPF> sw_lb_rho 0.01                       # lower bound on rho

rho will never get smaller than 0.010000.
DPF> ls_search_freq 0.06                  # probability of performing local search on individual

Local search will be performed with frequency 0.060000.
DPF> set_psw1                             # set the above pseudo-Solis & Wets parameters

Creating a new Local Search object using the pseudo-Solis-Wets algorithm (pSW1) with the current settings.

DPF> unbound_model bound                  # state of unbound ligand

DPF> ga_run 10                            # do this many hybrid GA-LS runs

centering ligand on specified point: -1.190 15.842 33.892
Furthest true ligand atom from "about" center is 14.993 Angstroms (maxrad).
Number of requested GA dockings = 10 runs
Unbound model to be used is 'same as bound' [AutoDock 4.2 default].

	BEGINNING GENETIC ALGORITHM DOCKING 1 of 10
Run: 1 Seed: 1528996386 711905727 [ Run 1 of 10 GA/GALS ]
Beginning LAMARCKIAN GENETIC ALGORITHM (LGA), with a maximum of 2500000 energy evaluations.

Final-Value: -15.127


	FINAL GENETIC ALGORITHM DOCKED STATE
	_______________________________________________


Detailed state:  trans -1.282 16.148 32.665 quatxyzw 0.820094 -0.051325 0.407290 -0.398655 center -1.190 15.842 33.892 ntor 29 78.4819 -155.3380 26.5556 178.8004 0.4469 179.3233 -95.3429 -65.6540 -131.2364 -98.0968 162.4363 -104.8336 75.6403 44.3011 48.9203 -170.1770 64.1628 -153.6232 151.8022 -108.0511 136.1161 -21.3456 99.8186 -174.1821 -168.8743 -174.6415 114.4714 8.3690 -160.2175
State:	 -1.282  16.148  32.665   0.894 -0.056  0.444 -133.012     78.48 -155.34   26.56  178.80    0.45  179.32  -95.34  -65.65 -131.24  -98.10  162.44 -104.83   75.64   44.30   48.92 -170.18   64.16 -153.62  151.80 -108.05  136.12  -21.35   99.82 -174.18 -168.87 -174.64  114.47    8.37 -160.22

DOCKED: MODEL        1
DOCKED: USER    Run = 1
DOCKED: USER    DPF = dock.dpf
DOCKED: USER  
DOCKED: USER    Estimated Free Energy of Binding    =   -5.07 kcal/mol  [=(1)+(2)+(3)-(4)]
DOCKED: USER    Estimated Inhibition Constant, Ki   =  193.55 uM (micromolar)  [Temperature = 298.15 K]
DOCKED: USER    
DOCKED: USER    (1) Final Intermolecular Energy     =  -13.72 kcal/mol
DOCKED: USER        vdW + Hbond + desolv Energy     =  -12.90 kcal/mol
DOCKED: USER        Electrostatic Energy            =   -0.82 kcal/mol
DOCKED: USER    (2) Final Total Internal Energy     =   -1.41 kcal/mol
DOCKED: USER    (3) Torsional Free Energy           =   +8.65 kcal/mol
DOCKED: USER    (4) Unbound System's Energy  [=(2)] =   -1.41 kcal/mol
DOCKED: USER    
DOCKED: USER    
DOCKED: USER    NEWDPF move lig1bai.pdbqt
DOCKED: USER    NEWDPF about -1.190000 15.842000 33.892000
DOCKED: USER    NEWDPF tran0 -1.281807 16.148281 32.665406
DOCKED: USER    NEWDPF quaternion0 0.820094 -0.051325 0.407290 -0.398655
DOCKED: USER    NEWDPF axisangle0 0.894225 -0.055965 0.444106 -133.011750
DOCKED: USER    NEWDPF quat0 0.894225 -0.055965 0.444106 -133.011750
DOCKED: USER    NEWDPF dihe0 78.48 -155.34 26.56 178.80 0.45 179.32 -95.34 -65.65 -131.24 -98.10 162.44 -104.83 75.64 44.30 48.92 -170.18 64.16 -153.62 151.80 -108.05 136.12 -21.35 99.82 -174.18 -168.87 -174.64 114.47 8.37 -160.22 
DOCKED: USER  keepresnum = 1 
DOCKED: USER  
DOCKED: REMARK  29 active torsions:
DOCKED: REMARK  status: ('A' for Active; 'I' for Inactive)
DOCKED: REMARK    1  A    between atoms: N_1  and  CA_2 
DOCKED: REMARK    2  A    between atoms: CA_2  and  C_9 
DOCKED: REMARK    3  A    between atoms: CA_2  and  CB_11 
DOCKED: REMARK    4  A    between atoms: CA1_3  and  CB1_12 
DOCKED: REMARK    5  A    between atoms: CA1_3  and  C1_42 
DOCKED: REMARK    6  A    between atoms: CA1_3  and  N1_43 
DOCKED: REMARK    7  A    between atoms: CA2_4  and  CB2_13 
DOCKED: REMARK    8  A    between atoms: CA2_4  and  C2_45 
DOCKED: REMARK    9  A    between atoms: CA2_4  and  N2_46 
DOCKED: REMARK   10  A    between atoms: CA3_5  and  CB3_14 
DOCKED: REMARK   11  A    between atoms: CA3_5  and  C3_48 
DOCKED: REMARK   12  A    between atoms: CA3_5  and  N3_49 
DOCKED: REMARK   13  A    between atoms: CA4_6  and  CB4_15 
DOCKED: REMARK   14  A    between atoms: CA4_6  and  C4_51 
DOCKED: REMARK   15  A    between atoms: CA4_6  and  N4_52 
DOCKED: REMARK   16  A    between atoms: CA5_7  and  C5_54 
DOCKED: REMARK   17  A    between atoms: CA5_7  and  N5_55 
DOCKED: REMARK   18  A    between atoms: CA6_8  and  CB6_17 
DOCKED: REMARK   19  A    between atoms: CA6_8  and  C6_57 
DOCKED: REMARK   20  A    between atoms: CA6_8  and  N6_58 
DOCKED: REMARK       I    between atoms: C_9  and  N1_43 
DOCKED: REMARK   21  A    between atoms: CB_11  and  CG_18 
DOCKED: REMARK   22  A    between atoms: CB2_13  and  CG3_21 
DOCKED: REMARK   23  A    between atoms: CB3_14  and  CG4_22 
DOCKED: REMARK   24  A    between atoms: CB4_15  and  CG5_23 
DOCKED: REMARK   25  A    between atoms: CB6_17  and  CG6_24 
DOCKED: REMARK   26  A    between atoms: CG_18  and  CD_25 
DOCKED: REMARK   27  A    between atoms: CG5_23  and  CD3_30 
DOCKED: REMARK   28  A    between atoms: CG6_24  and  CD4_31 
DOCKED: REMARK   29  A    between atoms: CD_25  and  NE_35 
DOCKED: REMARK       I    between atoms: NE_35  and  CZ_38 
DOCKED: REMARK       I    between atoms: CZ_38  and  NH1_40 
DOCKED: REMARK       I    between atoms: C1_42  and  N2_46 
DOCKED: REMARK       I    between atoms: C3_48  and  N4_52 
DOCKED: REMARK       I    between atoms: C4_51  and  N5_55 
DOCKED: REMARK       I    between atoms: C5_54  and  N6_58 
DOCKED: REMARK       I    between atoms: C6_57  and  N7_59 
DOCKED: USER                              x       y       z     vdW  Elec       q    Type
DOCKED: USER                           _______ _______ _______ _____ _____    ______ ____
DOCKED: ROOT
DOCKED: ATOM      1  CA3 0Q4 A 125      -3.091  16.062  34.170 -0.00 -0.13    +0.177 C 
DOCKED: ENDROOT
DOCKED: BRANCH   1   2
DOCKED: ATOM      2  CB3 0Q4 A 125      -3.763  17.257  34.910 -0.38 -0.06    +0.073 C 
DOCKED: BRANCH   2   3
DOCKED: ATOM      3  CG4 0Q4 A 125      -5.020  16.935  35.617 -0.36 +0.04    -0.056 A 
DOCKED: ATOM      4  CD1 0Q4 A 125      -5.697  17.909  36.339 -0.19 -0.01    +0.007 A 
DOCKED: ATOM      5  CE1 0Q4 A 125      -6.924  17.620  36.981 -0.24 -0.00    +0.001 A 
DOCKED: ATOM      6  CZ1 0Q4 A 125      -7.474  16.336  36.904 -0.52 -0.00    +0.000 A 
DOCKED: ATOM      7  CE2 0Q4 A 125      -6.799  15.347  36.191 -0.41 -0.00    +0.001 A 
DOCKED: ATOM      8  CD2 0Q4 A 125      -5.564  15.656  35.545 -0.41 -0.00    +0.007 A 
DOCKED: ENDBRANCH   2   3
DOCKED: ENDBRANCH   1   2
DOCKED: BRANCH   1   9
DOCKED: ATOM      9  C3  0Q4 A 125      -3.120  16.113  32.617 -0.20 -0.19    +0.241 C 
DOCKED: ATOM     10  O2  0Q4 A 125      -2.760  15.134  31.957 -0.21 +0.15    -0.271 OA
DOCKED: ATOM     11  N4  0Q4 A 125      -3.651  17.202  32.061 -0.01 +0.36    -0.346 N 
DOCKED: ATOM     12  H4  0Q4 A 125      -3.919  17.959  32.627 -0.39 -0.22    +0.163 HD
DOCKED: BRANCH  11  13
DOCKED: ATOM     13  CA4 0Q4 A 125      -3.819  17.361  30.614 -0.02 -0.17    +0.177 C 
DOCKED: BRANCH  13  14
DOCKED: ATOM     14  CB4 0Q4 A 125      -2.420  17.489  29.949 -0.32 -0.04    +0.045 C 
DOCKED: BRANCH  14  15
DOCKED: ATOM     15  CG5 0Q4 A 125      -1.696  16.204  29.595 -0.32 -0.07    +0.116 C 
DOCKED: BRANCH  15  16
DOCKED: ATOM     16  CD3 0Q4 A 125      -1.979  15.727  28.163 -0.30 -0.08    +0.172 C 
DOCKED: ATOM     17  OE1 0Q4 A 125      -1.172  14.947  27.623 +0.09 +0.21    -0.648 OA
DOCKED: ATOM     18  OE2 0Q4 A 125      -3.012  16.120  27.558 +0.16 +0.26    -0.648 OA
DOCKED: ENDBRANCH  15  16
DOCKED: ENDBRANCH  14  15
DOCKED: ENDBRANCH  13  14
DOCKED: BRANCH  13  19
DOCKED: ATOM     19  C4  0Q4 A 125      -4.623  16.261  29.913 -0.13 -0.16    +0.241 C 
DOCKED: ATOM     20  O3  0Q4 A 125      -4.175  15.123  29.758 -0.18 +0.15    -0.271 OA
DOCKED: ATOM     21  N5  0Q4 A 125      -5.752  16.655  29.349 -0.01 +0.22    -0.346 N 
DOCKED: ATOM     22  H5  0Q4 A 125      -6.029  17.597  29.393 +0.08 -0.12    +0.163 HD
DOCKED: BRANCH  21  23
DOCKED: ATOM     23  CA5 0Q4 A 125      -6.607  15.712  28.661 -0.11 -0.09    +0.172 C 
DOCKED: ATOM     24  CB5 0Q4 A 125      -5.808  14.452  28.386 -0.27 -0.02    +0.042 C 
DOCKED: BRANCH  23  25
DOCKED: ATOM     25  C5  0Q4 A 125      -7.934  15.332  29.364 -0.11 -0.16    +0.240 C 
DOCKED: ATOM     26  O4  0Q4 A 125      -9.032  15.558  28.851 -0.07 +0.18    -0.271 OA
DOCKED: ATOM     27  N6  0Q4 A 125      -7.789  14.801  30.574 -0.13 +0.26    -0.346 N 
DOCKED: ATOM     28  H6  0Q4 A 125      -6.886  14.693  30.919 +0.02 -0.13    +0.163 HD
DOCKED: BRANCH  27  29
DOCKED: ATOM     29  CA6 0Q4 A 125      -8.899  14.447  31.448 -0.23 -0.14    +0.176 C 
DOCKED: BRANCH  29  30
DOCKED: ATOM     30  CB6 0Q4 A 125      -8.685  15.123  32.827 -0.37 -0.03    +0.035 C 
DOCKED: BRANCH  30  31
DOCKED: ATOM     31  CG6 0Q4 A 125      -8.504  16.681  32.853 -0.33 -0.00    +0.002 C 
DOCKED: BRANCH  31  32
DOCKED: ATOM     32  CD4 0Q4 A 125      -7.214  17.207  32.110 -0.35 +0.00    -0.004 C 
DOCKED: ATOM     33  CE  0Q4 A 125      -6.272  17.895  33.077 -0.16 -0.00    +0.005 C 
DOCKED: ENDBRANCH  31  32
DOCKED: ENDBRANCH  30  31
DOCKED: ENDBRANCH  29  30
DOCKED: BRANCH  29  34
DOCKED: ATOM     34  C6  0Q4 A 125     -10.165  15.009  30.778 -0.13 -0.20    +0.238 C 
DOCKED: ATOM     35  O5  0Q4 A 125     -10.351  16.259  30.709 -0.07 +0.38    -0.271 OA
DOCKED: ATOM     36  N7  0Q4 A 125     -10.989  14.164  30.349 -0.02 +0.21    -0.368 N 
DOCKED: ATOM     37  H72 0Q4 A 125     -10.840  13.157  30.404 +0.11 -0.04    +0.159 HD
DOCKED: ATOM     38  H71 0Q4 A 125     -11.828  14.537  29.905 +0.03 -0.09    +0.159 HD
DOCKED: ENDBRANCH  29  34
DOCKED: ENDBRANCH  27  29
DOCKED: ENDBRANCH  23  25
DOCKED: ENDBRANCH  21  23
DOCKED: ENDBRANCH  13  19
DOCKED: ENDBRANCH  11  13
DOCKED: ENDBRANCH   1   9
DOCKED: BRANCH   1  39
DOCKED: ATOM     39  N3  0Q4 A 125      -1.670  16.072  34.534 +0.40 +0.29    -0.387 N 
DOCKED: ATOM     40  C2  0Q4 A 125      -1.152  16.889  35.434 -0.33 -0.08    +0.081 C 
DOCKED: ATOM     41  H3  0Q4 A 125      -1.076  15.428  34.102 +0.10 -0.09    +0.159 HD
DOCKED: BRANCH  40  42
DOCKED: ATOM     42  CA2 0Q4 A 125       0.336  16.714  35.706 -0.30 -0.11    +0.123 C 
DOCKED: BRANCH  42  43
DOCKED: ATOM     43  CB2 0Q4 A 125       0.864  17.739  36.739 -0.38 -0.04    +0.034 C 
DOCKED: BRANCH  43  44
DOCKED: ATOM     44  CG3 0Q4 A 125       1.474  17.124  38.030 -0.46 +0.01    -0.020 C 
DOCKED: ATOM     45  CD1 0Q4 A 125       1.377  15.600  38.072 -0.53 -0.00    +0.009 C 
DOCKED: ATOM     46  CD2 0Q4 A 125       2.924  17.550  38.173 -0.42 -0.00    +0.009 C 
DOCKED: ENDBRANCH  43  44
DOCKED: ENDBRANCH  42  43
DOCKED: BRANCH  42  47
DOCKED: ATOM     47  N2  0Q4 A 125       1.208  16.697  34.547 -0.08 +0.31    -0.350 N 
DOCKED: ATOM     48  C1  0Q4 A 125       1.752  17.810  34.087 -0.23 -0.31    +0.241 C 
DOCKED: ATOM     49  O1  0Q4 A 125       1.670  18.859  34.712 -0.16 +0.51    -0.271 OA
DOCKED: ATOM     50  HN2 0Q4 A 125       1.361  15.847  34.076 +0.09 -0.10    +0.163 HD
DOCKED: BRANCH  48  51
DOCKED: ATOM     51  CA1 0Q4 A 125       2.604  17.670  32.798 -0.26 -0.20    +0.180 C 
DOCKED: BRANCH  51  52
DOCKED: ATOM     52  CB1 0Q4 A 125       1.826  16.970  31.569 -0.36 -0.01    +0.009 C 
DOCKED: ATOM     53  CG1 0Q4 A 125       0.455  17.606  31.326 -0.37 -0.02    +0.012 C 
DOCKED: ATOM     54  CG2 0Q4 A 125       2.640  17.100  30.265 -0.42 -0.01    +0.012 C 
DOCKED: ENDBRANCH  51  52
DOCKED: BRANCH  51  55
DOCKED: ATOM     55  N1  0Q4 A 125       3.872  16.983  33.049 -0.12 +0.26    -0.346 N 
DOCKED: ATOM     56  C   0Q4 A 125       4.504  17.014  34.234 -0.14 -0.17    +0.249 C 
DOCKED: ATOM     57  O   0Q4 A 125       4.067  17.645  35.215 -0.06 +0.22    -0.271 OA
DOCKED: ATOM     58  H1  0Q4 A 125       4.228  16.468  32.294 +0.09 -0.11    +0.163 HD
DOCKED: BRANCH  56  59
DOCKED: ATOM     59  CA  0Q4 A 125       5.881  16.281  34.318 -0.13 -0.14    +0.274 C 
DOCKED: BRANCH  59  60
DOCKED: ATOM     60  N   0Q4 A 125       5.664  14.902  34.855 -0.04 +0.04    -0.067 N 
DOCKED: ATOM     61  H   0Q4 A 125       6.526  14.341  34.807 -0.03 -0.15    +0.275 HD
DOCKED: ATOM     62  H2  0Q4 A 125       5.357  15.032  35.852 +0.12 -0.10    +0.275 HD
DOCKED: ATOM     63  HN3 0Q4 A 125       4.924  14.421  34.321 -0.28 -0.25    +0.275 HD
DOCKED: ENDBRANCH  59  60
DOCKED: BRANCH  59  64
DOCKED: ATOM     64  CB  0Q4 A 125       6.590  16.183  32.961 -0.32 -0.03    +0.044 C 
DOCKED: BRANCH  64  65
DOCKED: ATOM     65  CG  0Q4 A 125       6.225  14.955  32.058 -0.31 -0.02    +0.023 C 
DOCKED: BRANCH  65  66
DOCKED: ATOM     66  CD  0Q4 A 125       6.565  15.098  30.532 -0.40 -0.08    +0.138 C 
DOCKED: BRANCH  66  67
DOCKED: ATOM     67  NE  0Q4 A 125       5.712  16.040  29.796 -0.25 +0.14    -0.227 N 
DOCKED: ATOM     68  CZ  0Q4 A 125       6.126  17.205  29.291 -0.02 -0.46    +0.665 C 
DOCKED: ATOM     69  NH1 0Q4 A 125       7.392  17.560  29.430 -0.32 +0.21    -0.235 N 
DOCKED: ATOM     70  NH2 0Q4 A 125       5.252  18.070  28.755 -0.37 +0.18    -0.235 N 
DOCKED: ATOM     71 HH11 0Q4 A 125       8.033  16.960  29.906 +0.00 -0.21    +0.174 HD
DOCKED: ATOM     72 HH12 0Q4 A 125       7.712  18.432  29.055 -0.10 -0.14    +0.174 HD
DOCKED: ATOM     73 HH21 0Q4 A 125       4.278  17.854  28.724 +0.12 -0.13    +0.174 HD
DOCKED: ATOM     74 HH22 0Q4 A 125       5.585  18.939  28.384 -0.32 -0.18    +0.174 HD
DOCKED: ATOM     75  HE  0Q4 A 125       4.767  15.807  29.661 +0.14 -0.10    +0.177 HD
DOCKED: ENDBRANCH  66  67
DOCKED: ENDBRANCH  65  66
DOCKED: ENDBRANCH  64  65
DOCKED: ENDBRANCH  59  64
DOCKED: ENDBRANCH  56  59
DOCKED: ENDBRANCH  51  55
DOCKED: ENDBRANCH  48  51
DOCKED: ENDBRANCH  42  47
DOCKED: ENDBRANCH  40  42
DOCKED: ENDBRANCH   1  39
DOCKED: TORSDOF 29
DOCKED: TER
DOCKED: ENDMDL
________________________________________________________________________________


	BEGINNING GENETIC ALGORITHM DOCKING 2 of 10
Run: 2 Seed: 1643220733 570372780 [ Run 2 of 10 GA/GALS ]
Beginning LAMARCKIAN GENETIC ALGORITHM (LGA), with a maximum of 2500000 energy evaluations.

Final-Value: -20.584


	FINAL GENETIC ALGORITHM DOCKED STATE
	_______________________________________________


Detailed state:  trans 2.010 16.858 34.610 quatxyzw 0.588228 0.176530 -0.787034 0.058326 center -1.190 15.842 33.892 ntor 29 -134.0916 140.9303 169.9367 -53.4669 -125.2567 -154.9673 161.1753 82.9803 -60.5274 -180.0000 -20.1047 -166.8518 156.9646 23.4819 15.2462 -178.0220 165.9478 -126.0141 72.7432 -21.1349 -153.0038 -115.8511 64.1959 -36.8504 172.8829 -53.4407 -180.0000 -113.4592 -109.3199
State:	  2.010  16.858  34.610   0.589  0.177 -0.788 173.313   -134.09  140.93  169.94  -53.47 -125.26 -154.97  161.18   82.98  -60.53 -180.00  -20.10 -166.85  156.96   23.48   15.25 -178.02  165.95 -126.01   72.74  -21.13 -153.00 -115.85   64.20  -36.85  172.88  -53.44 -180.00 -113.46 -109.32

DOCKED: MODEL        2
DOCKED: USER    Run = 2
DOCKED: USER    DPF = dock.dpf
DOCKED: USER  
DOCKED: USER    Estimated Free Energy of Binding    =   -6.39 kcal/mol  [=(1)+(2)+(3)-(4)]
DOCKED: USER    Estimated Inhibition Constant, Ki   =   20.62 uM (micromolar)  [Temperature = 298.15 K]
DOCKED: USER    
DOCKED: USER    (1) Final Intermolecular Energy     =  -15.04 kcal/mol
DOCKED: USER        vdW + Hbond + desolv Energy     =  -13.13 kcal/mol
DOCKED: USER        Electrostatic Energy            =   -1.92 kcal/mol
DOCKED: USER    (2) Final Total Internal Energy     =   -5.54 kcal/mol
DOCKED: USER    (3) Torsional Free Energy           =   +8.65 kcal/mol
DOCKED: USER    (4) Unbound System's Energy  [=(2)] =   -5.54 kcal/mol
DOCKED: USER    
DOCKED: USER    
DOCKED: USER    NEWDPF move lig1bai.pdbqt
DOCKED: USER    NEWDPF about -1.190000 15.842000 33.892000
DOCKED: USER    NEWDPF tran0 2.010362 16.857918 34.609735
DOCKED: USER    NEWDPF quaternion0 0.588228 0.176530 -0.787034 0.058326
DOCKED: USER    NEWDPF axisangle0 0.589231 0.176831 -0.788376 173.312565
DOCKED: USER    NEWDPF quat0 0.589231 0.176831 -0.788376 173.312565
DOCKED: USER    NEWDPF dihe0 -134.09 140.93 169.94 -53.47 -125.26 -154.97 161.18 82.98 -60.53 -180.00 -20.10 -166.85 156.96 23.48 15.25 -178.02 165.95 -126.01 72.74 -21.13 -153.00 -115.85 64.20 -36.85 172.88 -53.44 -180.00 -113.46 -109.32 
DOCKED: USER  keepresnum = 1 
DOCKED: USER  
DOCKED: REMARK  29 active torsions:
DOCKED: REMARK  status: ('A' for Active; 'I' for Inactive)
DOCKED: REMARK    1  A    between atoms: N_1  and  CA_2 
DOCKED: REMARK    2  A    between atoms: CA_2  and  C_9 
DOCKED: REMARK    3  A    between atoms: CA_2  and  CB_11 
DOCKED: REMARK    4  A    between atoms: CA1_3  and  CB1_12 
DOCKED: REMARK    5  A    between atoms: CA1_3  and  C1_42 
DOCKED: REMARK    6  A    between atoms: CA1_3  and  N1_43 
DOCKED: REMARK    7  A    between atoms: CA2_4  and  CB2_13 
DOCKED: REMARK    8  A    between atoms: CA2_4  and  C2_45 
DOCKED: REMARK    9  A    between atoms: CA2_4  and  N2_46 
DOCKED: REMARK   10  A    between atoms: CA3_5  and  CB3_14 
DOCKED: REMARK   11  A    between atoms: CA3_5  and  C3_48 
DOCKED: REMARK   12  A    between atoms: CA3_5  and  N3_49 
DOCKED: REMARK   13  A    between atoms: CA4_6  and  CB4_15 
DOCKED: REMARK   14  A    between atoms: CA4_6  and  C4_51 
DOCKED: REMARK   15  A    between atoms: CA4_6  and  N4_52 
DOCKED: REMARK   16  A    between atoms: CA5_7  and  C5_54 
DOCKED: REMARK   17  A    between atoms: CA5_7  and  N5_55 
DOCKED: REMARK   18  A    between atoms: CA6_8  and  CB6_17 
DOCKED: REMARK   19  A    between atoms: CA6_8  and  C6_57 
DOCKED: REMARK   20  A    between atoms: CA6_8  and  N6_58 
DOCKED: REMARK       I    between atoms: C_9  and  N1_43 
DOCKED: REMARK   21  A    between atoms: CB_11  and  CG_18 
DOCKED: REMARK   22  A    between atoms: CB2_13  and  CG3_21 
DOCKED: REMARK   23  A    between atoms: CB3_14  and  CG4_22 
DOCKED: REMARK   24  A    between atoms: CB4_15  and  CG5_23 
DOCKED: REMARK   25  A    between atoms: CB6_17  and  CG6_24 
DOCKED: REMARK   26  A    between atoms: CG_18  and  CD_25 
DOCKED: REMARK   27  A    between atoms: CG5_23  and  CD3_30 
DOCKED: REMARK   28  A    between atoms: CG6_24  and  CD4_31 
DOCKED: REMARK   29  A    between atoms: CD_25  and  NE_35 
DOCKED: REMARK       I    between atoms: NE_35  and  CZ_38 
DOCKED: REMARK       I    between atoms: CZ_38  and  NH1_40 
DOCKED: REMARK       I    between atoms: C1_42  and  N2_46 
DOCKED: REMARK       I    between atoms: C3_48  and  N4_52 
DOCKED: REMARK       I    between atoms: C4_51  and  N5_55 
DOCKED: REMARK       I    between atoms: C5_54  and  N6_58 
DOCKED: REMARK       I    between atoms: C6_57  and  N7_59 
DOCKED: USER                              x       y       z     vdW  Elec       q    Type
DOCKED: USER                           _______ _______ _______ _____ _____    ______ ____
DOCKED: ROOT
DOCKED: ATOM      1  CA3 0Q4 A 125       3.772  15.547  33.760 -0.20 -0.11    +0.177 C 
DOCKED: ENDROOT
DOCKED: BRANCH   1   2
DOCKED: ATOM      2  CB3 0Q4 A 125       5.083  16.049  33.084 -0.28 -0.05    +0.073 C 
DOCKED: BRANCH   2   3
DOCKED: ATOM      3  CG4 0Q4 A 125       5.171  15.818  31.627 -0.32 +0.04    -0.056 A 
DOCKED: ATOM      4  CD1 0Q4 A 125       5.239  16.886  30.744 -0.37 -0.00    +0.007 A 
DOCKED: ATOM      5  CE1 0Q4 A 125       5.368  16.674  29.351 -0.48 -0.00    +0.001 A 
DOCKED: ATOM      6  CZ1 0Q4 A 125       5.421  15.373  28.839 -0.46 -0.00    +0.000 A 
DOCKED: ATOM      7  CE2 0Q4 A 125       5.344  14.292  29.715 -0.46 -0.00    +0.001 A 
DOCKED: ATOM      8  CD2 0Q4 A 125       5.218  14.524  31.118 -0.40 -0.00    +0.007 A 
DOCKED: ENDBRANCH   2   3
DOCKED: ENDBRANCH   1   2
DOCKED: BRANCH   1   9
DOCKED: ATOM      9  C3  0Q4 A 125       3.528  16.018  35.221 -0.17 -0.13    +0.241 C 
DOCKED: ATOM     10  O2  0Q4 A 125       3.683  15.233  36.160 -0.18 +0.09    -0.271 OA
DOCKED: ATOM     11  N4  0Q4 A 125       3.265  17.313  35.398 -0.07 +0.27    -0.346 N 
DOCKED: ATOM     12  H4  0Q4 A 125       3.145  17.899  34.619 -0.12 -0.18    +0.163 HD
DOCKED: BRANCH  11  13
DOCKED: ATOM     13  CA4 0Q4 A 125       3.089  17.920  36.720 -0.22 -0.13    +0.177 C 
DOCKED: BRANCH  13  14
DOCKED: ATOM     14  CB4 0Q4 A 125       1.605  17.768  37.159 -0.40 -0.04    +0.045 C 
DOCKED: BRANCH  14  15
DOCKED: ATOM     15  CG5 0Q4 A 125       0.682  16.994  36.239 -0.32 -0.11    +0.116 C 
DOCKED: BRANCH  15  16
DOCKED: ATOM     16  CD3 0Q4 A 125       0.103  15.729  36.890 -0.34 -0.08    +0.172 C 
DOCKED: ATOM     17  OE1 0Q4 A 125      -1.018  15.793  37.427 -0.01 +0.31    -0.648 OA
DOCKED: ATOM     18  OE2 0Q4 A 125       0.757  14.653  36.870 -0.24 +0.12    -0.648 OA
DOCKED: ENDBRANCH  15  16
DOCKED: ENDBRANCH  14  15
DOCKED: ENDBRANCH  13  14
DOCKED: BRANCH  13  19
DOCKED: ATOM     19  C4  0Q4 A 125       4.008  17.386  37.823 -0.21 -0.08    +0.241 C 
DOCKED: ATOM     20  O3  0Q4 A 125       3.797  17.613  39.017 -0.23 +0.06    -0.271 OA
DOCKED: ATOM     21  N5  0Q4 A 125       5.121  16.807  37.405 -0.05 +0.07    -0.346 N 
DOCKED: ATOM     22  H5  0Q4 A 125       5.318  16.741  36.444 +0.08 -0.05    +0.163 HD
DOCKED: BRANCH  21  23
DOCKED: ATOM     23  CA5 0Q4 A 125       6.072  16.255  38.346 -0.18 +0.00    +0.172 C 
DOCKED: ATOM     24  CB5 0Q4 A 125       5.466  15.009  38.964 -0.25 -0.00    +0.042 C 
DOCKED: BRANCH  23  25
DOCKED: ATOM     25  C5  0Q4 A 125       7.482  15.921  37.799 -0.09 +0.03    +0.240 C 
DOCKED: ATOM     26  O4  0Q4 A 125       8.060  16.656  36.995 -0.10 -0.06    -0.271 OA
DOCKED: ATOM     27  N6  0Q4 A 125       7.981  14.765  38.222 -0.02 -0.00    -0.346 N 
DOCKED: ATOM     28  H6  0Q4 A 125       7.440  14.228  38.826 +0.05 -0.01    +0.163 HD
DOCKED: BRANCH  27  29
DOCKED: ATOM     29  CA6 0Q4 A 125       9.252  14.212  37.773 -0.10 -0.01    +0.176 C 
DOCKED: BRANCH  29  30
DOCKED: ATOM     30  CB6 0Q4 A 125       9.270  12.692  38.074 -0.15 -0.00    +0.035 C 
DOCKED: BRANCH  30  31
DOCKED: ATOM     31  CG6 0Q4 A 125       8.822  12.228  39.505 -0.08 -0.00    +0.002 C 
DOCKED: BRANCH  31  32
DOCKED: ATOM     32  CD4 0Q4 A 125       7.258  12.181  39.721 -0.15 +0.00    -0.004 C 
DOCKED: ATOM     33  CE  0Q4 A 125       6.539  11.860  38.427 -0.26 -0.00    +0.005 C 
DOCKED: ENDBRANCH  31  32
DOCKED: ENDBRANCH  30  31
DOCKED: ENDBRANCH  29  30
DOCKED: BRANCH  29  34
DOCKED: ATOM     34  C6  0Q4 A 125       9.306  14.448  36.254 -0.12 -0.04    +0.238 C 
DOCKED: ATOM     35  O5  0Q4 A 125      10.097  15.309  35.767 -0.17 +0.07    -0.271 OA
DOCKED: ATOM     36  N7  0Q4 A 125       8.509  13.772  35.557 -0.16 +0.11    -0.368 N 
DOCKED: ATOM     37  H72 0Q4 A 125       7.872  13.079  35.948 +0.05 -0.03    +0.159 HD
DOCKED: ATOM     38  H71 0Q4 A 125       8.545  13.929  34.550 -0.42 -0.10    +0.159 HD
DOCKED: ENDBRANCH  29  34
DOCKED: ENDBRANCH  27  29
DOCKED: ENDBRANCH  23  25
DOCKED: ENDBRANCH  21  23
DOCKED: ENDBRANCH  13  19
DOCKED: ENDBRANCH  11  13
DOCKED: ENDBRANCH   1   9
DOCKED: BRANCH   1  39
DOCKED: ATOM     39  N3  0Q4 A 125       2.651  16.088  32.983 -0.09 +0.26    -0.387 N 
DOCKED: ATOM     40  C2  0Q4 A 125       2.490  15.878  31.689 -0.09 -0.05    +0.081 C 
DOCKED: ATOM     41  H3  0Q4 A 125       1.976  16.618  33.450 +0.09 -0.13    +0.159 HD
DOCKED: BRANCH  40  42
DOCKED: ATOM     42  CA2 0Q4 A 125       1.238  16.487  31.072 -0.22 -0.11    +0.123 C 
DOCKED: BRANCH  42  43
DOCKED: ATOM     43  CB2 0Q4 A 125       1.156  18.015  31.306 -0.02 -0.06    +0.034 C 
DOCKED: BRANCH  43  44
DOCKED: ATOM     44  CG3 0Q4 A 125       0.389  18.450  32.586 -0.42 +0.04    -0.020 C 
DOCKED: ATOM     45  CD1 0Q4 A 125       1.216  19.350  33.504 -0.20 -0.02    +0.009 C 
DOCKED: ATOM     46  CD2 0Q4 A 125      -0.901  19.152  32.205 -0.37 -0.02    +0.009 C 
DOCKED: ENDBRANCH  43  44
DOCKED: ENDBRANCH  42  43
DOCKED: BRANCH  42  47
DOCKED: ATOM     47  N2  0Q4 A 125      -0.025  15.871  31.431 -0.06 +0.24    -0.350 N 
DOCKED: ATOM     48  C1  0Q4 A 125      -1.033  15.836  30.578 -0.16 -0.16    +0.241 C 
DOCKED: ATOM     49  O1  0Q4 A 125      -0.886  16.175  29.410 -0.22 +0.18    -0.271 OA
DOCKED: ATOM     50  HN2 0Q4 A 125      -0.140  15.511  32.339 +0.09 -0.10    +0.163 HD
DOCKED: BRANCH  48  51
DOCKED: ATOM     51  CA1 0Q4 A 125      -2.353  15.217  31.107 -0.22 -0.09    +0.180 C 
DOCKED: BRANCH  51  52
DOCKED: ATOM     52  CB1 0Q4 A 125      -3.449  14.923  29.960 -0.37 -0.00    +0.009 C 
DOCKED: ATOM     53  CG1 0Q4 A 125      -4.144  16.205  29.495 -0.27 -0.01    +0.012 C 
DOCKED: ATOM     54  CG2 0Q4 A 125      -2.788  14.274  28.727 -0.06 -0.00    +0.012 C 
DOCKED: ENDBRANCH  51  52
DOCKED: BRANCH  51  55
DOCKED: ATOM     55  N1  0Q4 A 125      -2.946  16.020  32.178 -0.10 +0.26    -0.346 N 
DOCKED: ATOM     56  C   0Q4 A 125      -2.350  16.220  33.365 -0.17 -0.20    +0.249 C 
DOCKED: ATOM     57  O   0Q4 A 125      -1.246  15.722  33.657 -0.12 +0.18    -0.271 OA
DOCKED: ATOM     58  H1  0Q4 A 125      -3.809  16.434  31.964 +0.08 -0.14    +0.163 HD
DOCKED: BRANCH  56  59
DOCKED: ATOM     59  CA  0Q4 A 125      -3.145  17.051  34.422 -0.23 -0.25    +0.274 C 
DOCKED: BRANCH  59  60
DOCKED: ATOM     60  N   0Q4 A 125      -4.118  17.936  33.711 -0.17 +0.07    -0.067 N 
DOCKED: ATOM     61  H   0Q4 A 125      -3.910  18.931  33.875 -0.09 -0.36    +0.275 HD
DOCKED: ATOM     62  H2  0Q4 A 125      -4.026  17.698  32.691 -0.25 -0.33    +0.275 HD
DOCKED: ATOM     63  HN3 0Q4 A 125      -5.081  17.742  34.030 +0.13 -0.24    +0.275 HD
DOCKED: ENDBRANCH  59  60
DOCKED: BRANCH  59  64
DOCKED: ATOM     64  CB  0Q4 A 125      -3.907  16.172  35.423 -0.31 -0.03    +0.044 C 
DOCKED: BRANCH  64  65
DOCKED: ATOM     65  CG  0Q4 A 125      -4.973  15.187  34.832 -0.41 -0.02    +0.023 C 
DOCKED: BRANCH  65  66
DOCKED: ATOM     66  CD  0Q4 A 125      -6.462  15.681  34.868 -0.37 -0.11    +0.138 C 
DOCKED: BRANCH  66  67
DOCKED: ATOM     67  NE  0Q4 A 125      -7.125  15.549  36.173 -0.29 +0.18    -0.227 N 
DOCKED: ATOM     68  CZ  0Q4 A 125      -7.140  16.493  37.117 -0.07 -0.54    +0.665 C 
DOCKED: ATOM     69  NH1 0Q4 A 125      -6.539  17.649  36.889 -0.36 +0.20    -0.235 N 
DOCKED: ATOM     70  NH2 0Q4 A 125      -7.647  16.241  38.333 -0.44 +0.16    -0.235 N 
DOCKED: ATOM     71 HH11 0Q4 A 125      -6.082  17.815  36.017 +0.09 -0.14    +0.174 HD
DOCKED: ATOM     72 HH12 0Q4 A 125      -6.545  18.364  37.591 -0.24 -0.21    +0.174 HD
DOCKED: ATOM     73 HH21 0Q4 A 125      -8.023  15.341  38.549 +0.12 -0.10    +0.174 HD
DOCKED: ATOM     74 HH22 0Q4 A 125      -7.645  16.964  39.026 +0.12 -0.11    +0.174 HD
DOCKED: ATOM     75  HE  0Q4 A 125      -7.593  14.709  36.377 +0.13 -0.12    +0.177 HD
DOCKED: ENDBRANCH  66  67
DOCKED: ENDBRANCH  65  66
DOCKED: ENDBRANCH  64  65
DOCKED: ENDBRANCH  59  64
DOCKED: ENDBRANCH  56  59
DOCKED: ENDBRANCH  51  55
DOCKED: ENDBRANCH  48  51
DOCKED: ENDBRANCH  42  47
DOCKED: ENDBRANCH  40  42
DOCKED: ENDBRANCH   1  39
DOCKED: TORSDOF 29
DOCKED: TER
DOCKED: ENDMDL
________________________________________________________________________________


	BEGINNING GENETIC ALGORITHM DOCKING 3 of 10
Run: 3 Seed: 1738860691 1207457378 [ Run 3 of 10 GA/GALS ]
Beginning LAMARCKIAN GENETIC ALGORITHM (LGA), with a maximum of 2500000 energy evaluations.

Final-Value: -13.068


	FINAL GENETIC ALGORITHM DOCKED STATE
	_______________________________________________


Detailed state:  trans -3.973 16.784 30.383 quatxyzw -0.975586 -0.201770 -0.082861 -0.025578 center -1.190 15.842 33.892 ntor 29 -18.3831 179.6397 145.9367 -111.5171 152.8422 163.2685 -136.2249 -136.2241 -32.0761 67.4597 -101.8761 158.3808 -37.3340 -172.3373 -115.9031 127.7986 -102.8945 11.2306 -180.0000 -112.6931 -41.5017 145.8295 -157.2773 40.1959 -115.8043 115.4104 133.9335 -139.8346 130.1353
State:	 -3.973  16.784  30.383  -0.976 -0.202 -0.083 -177.069    -18.38  179.64  145.94 -111.52  152.84  163.27 -136.22 -136.22  -32.08   67.46 -101.88  158.38  -37.33 -172.34 -115.90  127.80 -102.89   11.23 -180.00 -112.69  -41.50  145.83 -157.28   40.20 -115.80  115.41  133.93 -139.83  130.14

DOCKED: MODEL        3
DOCKED: USER    Run = 3
DOCKED: USER    DPF = dock.dpf
DOCKED: USER  
DOCKED: USER    Estimated Free Energy of Binding    =   -3.47 kcal/mol  [=(1)+(2)+(3)-(4)]
DOCKED: USER    Estimated Inhibition Constant, Ki   =    2.84 mM (millimolar)  [Temperature = 298.15 K]
DOCKED: USER    
DOCKED: USER    (1) Final Intermolecular Energy     =  -12.12 kcal/mol
DOCKED: USER        vdW + Hbond + desolv Energy     =  -11.72 kcal/mol
DOCKED: USER        Electrostatic Energy            =   -0.40 kcal/mol
DOCKED: USER    (2) Final Total Internal Energy     =   -0.94 kcal/mol
DOCKED: USER    (3) Torsional Free Energy           =   +8.65 kcal/mol
DOCKED: USER    (4) Unbound System's Energy  [=(2)] =   -0.94 kcal/mol
DOCKED: USER    
DOCKED: USER    
DOCKED: USER    NEWDPF move lig1bai.pdbqt
DOCKED: USER    NEWDPF about -1.190000 15.842000 33.892000
DOCKED: USER    NEWDPF tran0 -3.972521 16.783713 30.382858
DOCKED: USER    NEWDPF quaternion0 -0.975586 -0.201770 -0.082861 -0.025578
DOCKED: USER    NEWDPF axisangle0 -0.975906 -0.201836 -0.082888 -177.068690
DOCKED: USER    NEWDPF quat0 -0.975906 -0.201836 -0.082888 -177.068690
DOCKED: USER    NEWDPF dihe0 -18.38 179.64 145.94 -111.52 152.84 163.27 -136.22 -136.22 -32.08 67.46 -101.88 158.38 -37.33 -172.34 -115.90 127.80 -102.89 11.23 -180.00 -112.69 -41.50 145.83 -157.28 40.20 -115.80 115.41 133.93 -139.83 130.14 
DOCKED: USER  keepresnum = 1 
DOCKED: USER  
DOCKED: REMARK  29 active torsions:
DOCKED: REMARK  status: ('A' for Active; 'I' for Inactive)
DOCKED: REMARK    1  A    between atoms: N_1  and  CA_2 
DOCKED: REMARK    2  A    between atoms: CA_2  and  C_9 
DOCKED: REMARK    3  A    between atoms: CA_2  and  CB_11 
DOCKED: REMARK    4  A    between atoms: CA1_3  and  CB1_12 
DOCKED: REMARK    5  A    between atoms: CA1_3  and  C1_42 
DOCKED: REMARK    6  A    between atoms: CA1_3  and  N1_43 
DOCKED: REMARK    7  A    between atoms: CA2_4  and  CB2_13 
DOCKED: REMARK    8  A    between atoms: CA2_4  and  C2_45 
DOCKED: REMARK    9  A    between atoms: CA2_4  and  N2_46 
DOCKED: REMARK   10  A    between atoms: CA3_5  and  CB3_14 
DOCKED: REMARK   11  A    between atoms: CA3_5  and  C3_48 
DOCKED: REMARK   12  A    between atoms: CA3_5  and  N3_49 
DOCKED: REMARK   13  A    between atoms: CA4_6  and  CB4_15 
DOCKED: REMARK   14  A    between atoms: CA4_6  and  C4_51 
DOCKED: REMARK   15  A    between atoms: CA4_6  and  N4_52 
DOCKED: REMARK   16  A    between atoms: CA5_7  and  C5_54 
DOCKED: REMARK   17  A    between atoms: CA5_7  and  N5_55 
DOCKED: REMARK   18  A    between atoms: CA6_8  and  CB6_17 
DOCKED: REMARK   19  A    between atoms: CA6_8  and  C6_57 
DOCKED: REMARK   20  A    between atoms: CA6_8  and  N6_58 
DOCKED: REMARK       I    between atoms: C_9  and  N1_43 
DOCKED: REMARK   21  A    between atoms: CB_11  and  CG_18 
DOCKED: REMARK   22  A    between atoms: CB2_13  and  CG3_21 
DOCKED: REMARK   23  A    between atoms: CB3_14  and  CG4_22 
DOCKED: REMARK   24  A    between atoms: CB4_15  and  CG5_23 
DOCKED: REMARK   25  A    between atoms: CB6_17  and  CG6_24 
DOCKED: REMARK   26  A    between atoms: CG_18  and  CD_25 
DOCKED: REMARK   27  A    between atoms: CG5_23  and  CD3_30 
DOCKED: REMARK   28  A    between atoms: CG6_24  and  CD4_31 
DOCKED: REMARK   29  A    between atoms: CD_25  and  NE_35 
DOCKED: REMARK       I    between atoms: NE_35  and  CZ_38 
DOCKED: REMARK       I    between atoms: CZ_38  and  NH1_40 
DOCKED: REMARK       I    between atoms: C1_42  and  N2_46 
DOCKED: REMARK       I    between atoms: C3_48  and  N4_52 
DOCKED: REMARK       I    between atoms: C4_51  and  N5_55 
DOCKED: REMARK       I    between atoms: C5_54  and  N6_58 
DOCKED: REMARK       I    between atoms: C6_57  and  N7_59 
DOCKED: USER                              x       y       z     vdW  Elec       q    Type
DOCKED: USER                           _______ _______ _______ _____ _____    ______ ____
DOCKED: ROOT
DOCKED: ATOM      1  CA3 0Q4 A 125      -3.670  15.013  31.906 -0.04 -0.11    +0.177 C 
DOCKED: ENDROOT
DOCKED: BRANCH   1   2
DOCKED: ATOM      2  CB3 0Q4 A 125      -3.599  15.105  33.460 -0.04 -0.05    +0.073 C 
DOCKED: BRANCH   2   3
DOCKED: ATOM      3  CG4 0Q4 A 125      -4.776  15.719  34.110 -0.30 +0.04    -0.056 A 
DOCKED: ATOM      4  CD1 0Q4 A 125      -5.920  14.973  34.354 -0.29 -0.01    +0.007 A 
DOCKED: ATOM      5  CE1 0Q4 A 125      -7.034  15.540  35.017 -0.42 -0.00    +0.001 A 
DOCKED: ATOM      6  CZ1 0Q4 A 125      -7.000  16.876  35.432 -0.51 -0.00    +0.000 A 
DOCKED: ATOM      7  CE2 0Q4 A 125      -5.860  17.639  35.184 -0.46 -0.00    +0.001 A 
DOCKED: ATOM      8  CD2 0Q4 A 125      -4.744  17.049  34.517 -0.37 -0.01    +0.007 A 
DOCKED: ENDBRANCH   2   3
DOCKED: ENDBRANCH   1   2
DOCKED: BRANCH   1   9
DOCKED: ATOM      9  C3  0Q4 A 125      -4.986  15.515  31.248 -0.15 -0.18    +0.241 C 
DOCKED: ATOM     10  O2  0Q4 A 125      -5.363  15.039  30.175 -0.17 +0.17    -0.271 OA
DOCKED: ATOM     11  N4  0Q4 A 125      -5.716  16.381  31.951 -0.08 +0.30    -0.346 N 
DOCKED: ATOM     12  H4  0Q4 A 125      -5.371  16.738  32.799 +0.08 -0.15    +0.163 HD
DOCKED: BRANCH  11  13
DOCKED: ATOM     13  CA4 0Q4 A 125      -7.016  16.883  31.498 -0.22 -0.19    +0.177 C 
DOCKED: BRANCH  13  14
DOCKED: ATOM     14  CB4 0Q4 A 125      -7.185  16.571  29.984 -0.18 -0.04    +0.045 C 
DOCKED: BRANCH  14  15
DOCKED: ATOM     15  CG5 0Q4 A 125      -7.123  17.740  29.020 -0.18 -0.10    +0.116 C 
DOCKED: BRANCH  15  16
DOCKED: ATOM     16  CD3 0Q4 A 125      -5.695  18.253  28.785 -0.21 -0.11    +0.172 C 
DOCKED: ATOM     17  OE1 0Q4 A 125      -5.325  18.476  27.617 +0.03 +0.23    -0.648 OA
DOCKED: ATOM     18  OE2 0Q4 A 125      -4.923  18.443  29.761 +0.07 +0.59    -0.648 OA
DOCKED: ENDBRANCH  15  16
DOCKED: ENDBRANCH  14  15
DOCKED: ENDBRANCH  13  14
DOCKED: BRANCH  13  19
DOCKED: ATOM     19  C4  0Q4 A 125      -8.235  16.365  32.269 -0.19 -0.29    +0.241 C 
DOCKED: ATOM     20  O3  0Q4 A 125      -8.742  17.003  33.194 -0.25 +0.43    -0.271 OA
DOCKED: ATOM     21  N5  0Q4 A 125      -8.602  15.127  31.984 -0.13 +0.32    -0.346 N 
DOCKED: ATOM     22  H5  0Q4 A 125      -8.106  14.600  31.320 +0.05 -0.13    +0.163 HD
DOCKED: BRANCH  21  23
DOCKED: ATOM     23  CA5 0Q4 A 125      -9.742  14.522  32.639 -0.28 -0.15    +0.172 C 
DOCKED: ATOM     24  CB5 0Q4 A 125     -10.014  15.277  33.926 -0.15 -0.06    +0.042 C 
DOCKED: BRANCH  23  25
DOCKED: ATOM     25  C5  0Q4 A 125     -11.051  14.429  31.815 -0.13 -0.18    +0.240 C 
DOCKED: ATOM     26  O4  0Q4 A 125     -11.844  13.495  31.953 -0.30 +0.15    -0.271 OA
DOCKED: ATOM     27  N6  0Q4 A 125     -11.213  15.398  30.920 -0.05 +0.31    -0.346 N 
DOCKED: ATOM     28  H6  0Q4 A 125     -10.518  16.075  30.849 -0.01 -0.21    +0.163 HD
DOCKED: BRANCH  27  29
DOCKED: ATOM     29  CA6 0Q4 A 125     -12.326  15.463  29.981 -0.05 -0.12    +0.176 C 
DOCKED: BRANCH  29  30
DOCKED: ATOM     30  CB6 0Q4 A 125     -13.629  15.743  30.773 -0.04 -0.02    +0.035 C 
DOCKED: BRANCH  30  31
DOCKED: ATOM     31  CG6 0Q4 A 125     -13.489  16.250  32.251 -0.09 -0.00    +0.002 C 
DOCKED: BRANCH  31  32
DOCKED: ATOM     32  CD4 0Q4 A 125     -12.611  17.553  32.419 -0.19 +0.01    -0.004 C 
DOCKED: ATOM     33  CE  0Q4 A 125     -13.134  18.418  33.547 -0.28 -0.01    +0.005 C 
DOCKED: ENDBRANCH  31  32
DOCKED: ENDBRANCH  30  31
DOCKED: ENDBRANCH  29  30
DOCKED: BRANCH  29  34
DOCKED: ATOM     34  C6  0Q4 A 125     -12.020  16.640  29.039 -0.02 -0.18    +0.238 C 
DOCKED: ATOM     35  O5  0Q4 A 125     -10.823  16.992  28.822 -0.06 +0.26    -0.271 OA
DOCKED: ATOM     36  N7  0Q4 A 125     -13.012  17.229  28.545 +0.01 +0.21    -0.368 N 
DOCKED: ATOM     37  H72 0Q4 A 125     -13.976  16.946  28.719 +0.01 -0.07    +0.159 HD
DOCKED: ATOM     38  H71 0Q4 A 125     -12.809  18.010  27.920 +0.02 -0.08    +0.159 HD
DOCKED: ENDBRANCH  29  34
DOCKED: ENDBRANCH  27  29
DOCKED: ENDBRANCH  23  25
DOCKED: ENDBRANCH  21  23
DOCKED: ENDBRANCH  13  19
DOCKED: ENDBRANCH  11  13
DOCKED: ENDBRANCH   1   9
DOCKED: BRANCH   1  39
DOCKED: ATOM     39  N3  0Q4 A 125      -2.612  15.880  31.373 -0.08 +0.26    -0.387 N 
DOCKED: ATOM     40  C2  0Q4 A 125      -2.583  17.189  31.549 -0.24 -0.08    +0.081 C 
DOCKED: ATOM     41  H3  0Q4 A 125      -1.880  15.466  30.878 +0.08 -0.09    +0.159 HD
DOCKED: BRANCH  40  42
DOCKED: ATOM     42  CA2 0Q4 A 125      -1.378  17.908  30.958 -0.32 -0.16    +0.123 C 
DOCKED: BRANCH  42  43
DOCKED: ATOM     43  CB2 0Q4 A 125      -0.829  17.190  29.700 -0.39 -0.03    +0.034 C 
DOCKED: BRANCH  43  44
DOCKED: ATOM     44  CG3 0Q4 A 125      -1.895  16.823  28.629 -0.40 +0.01    -0.020 C 
DOCKED: ATOM     45  CD1 0Q4 A 125      -2.518  18.048  27.960 -0.06 -0.01    +0.009 C 
DOCKED: ATOM     46  CD2 0Q4 A 125      -1.282  15.918  27.576 -0.24 -0.00    +0.009 C 
DOCKED: ENDBRANCH  43  44
DOCKED: ENDBRANCH  42  43
DOCKED: BRANCH  42  47
DOCKED: ATOM     47  N2  0Q4 A 125      -0.286  18.196  31.868 -0.15 +0.62    -0.350 N 
DOCKED: ATOM     48  C1  0Q4 A 125      -0.141  17.520  32.994 -0.22 -0.33    +0.241 C 
DOCKED: ATOM     49  O1  0Q4 A 125      -0.821  16.530  33.229 -0.15 +0.25    -0.271 OA
DOCKED: ATOM     50  HN2 0Q4 A 125       0.330  18.933  31.658 -0.41 -0.46    +0.163 HD
DOCKED: BRANCH  48  51
DOCKED: ATOM     51  CA1 0Q4 A 125       1.021  17.973  33.916 -0.28 -0.28    +0.180 C 
DOCKED: BRANCH  51  52
DOCKED: ATOM     52  CB1 0Q4 A 125       2.414  17.203  33.648 -0.33 -0.01    +0.009 C 
DOCKED: ATOM     53  CG1 0Q4 A 125       3.341  17.262  34.864 -0.25 -0.01    +0.012 C 
DOCKED: ATOM     54  CG2 0Q4 A 125       2.161  15.717  33.322 -0.35 -0.01    +0.012 C 
DOCKED: ENDBRANCH  51  52
DOCKED: BRANCH  51  55
DOCKED: ATOM     55  N1  0Q4 A 125       0.663  17.888  35.333 +0.02 +0.56    -0.346 N 
DOCKED: ATOM     56  C   0Q4 A 125       0.583  16.728  36.004 -0.23 -0.21    +0.249 C 
DOCKED: ATOM     57  O   0Q4 A 125       0.794  15.624  35.468 -0.33 +0.13    -0.271 OA
DOCKED: ATOM     58  H1  0Q4 A 125       0.506  18.748  35.780 -0.42 -0.49    +0.163 HD
DOCKED: BRANCH  56  59
DOCKED: ATOM     59  CA  0Q4 A 125       0.127  16.806  37.496 -0.25 -0.18    +0.274 C 
DOCKED: BRANCH  59  60
DOCKED: ATOM     60  N   0Q4 A 125      -1.367  16.765  37.550 -0.36 +0.04    -0.067 N 
DOCKED: ATOM     61  H   0Q4 A 125      -1.771  17.710  37.481 +0.25 -0.24    +0.275 HD
DOCKED: ATOM     62  H2  0Q4 A 125      -1.664  16.171  36.735 +0.18 -0.17    +0.275 HD
DOCKED: ATOM     63  HN3 0Q4 A 125      -1.684  16.333  38.431 +0.20 -0.13    +0.275 HD
DOCKED: ENDBRANCH  59  60
DOCKED: BRANCH  59  64
DOCKED: ATOM     64  CB  0Q4 A 125       0.689  15.664  38.353 -0.54 -0.02    +0.044 C 
DOCKED: BRANCH  64  65
DOCKED: ATOM     65  CG  0Q4 A 125       2.183  15.791  38.811 -0.48 -0.01    +0.023 C 
DOCKED: BRANCH  65  66
DOCKED: ATOM     66  CD  0Q4 A 125       2.987  16.996  38.208 -0.32 -0.05    +0.138 C 
DOCKED: BRANCH  66  67
DOCKED: ATOM     67  NE  0Q4 A 125       4.319  16.653  37.692 -0.13 +0.06    -0.227 N 
DOCKED: ATOM     68  CZ  0Q4 A 125       5.470  16.942  38.304 +0.01 -0.02    +0.665 C 
DOCKED: ATOM     69  NH1 0Q4 A 125       5.446  17.569  39.468 -0.20 -0.03    -0.235 N 
DOCKED: ATOM     70  NH2 0Q4 A 125       6.646  16.718  37.698 -0.12 -0.03    -0.235 N 
DOCKED: ATOM     71 HH11 0Q4 A 125       4.575  17.818  39.887 +0.08 -0.01    +0.174 HD
DOCKED: ATOM     72 HH12 0Q4 A 125       6.304  17.790  39.936 +0.04 +0.09    +0.174 HD
DOCKED: ATOM     73 HH21 0Q4 A 125       6.676  16.329  36.779 +0.07 -0.02    +0.174 HD
DOCKED: ATOM     74 HH22 0Q4 A 125       7.496  16.946  38.176 +0.04 +0.10    +0.174 HD
DOCKED: ATOM     75  HE  0Q4 A 125       4.379  16.176  36.834 +0.09 -0.06    +0.177 HD
DOCKED: ENDBRANCH  66  67
DOCKED: ENDBRANCH  65  66
DOCKED: ENDBRANCH  64  65
DOCKED: ENDBRANCH  59  64
DOCKED: ENDBRANCH  56  59
DOCKED: ENDBRANCH  51  55
DOCKED: ENDBRANCH  48  51
DOCKED: ENDBRANCH  42  47
DOCKED: ENDBRANCH  40  42
DOCKED: ENDBRANCH   1  39
DOCKED: TORSDOF 29
DOCKED: TER
DOCKED: ENDMDL
________________________________________________________________________________


	BEGINNING GENETIC ALGORITHM DOCKING 4 of 10
Run: 4 Seed: 1750176618 1564378264 [ Run 4 of 10 GA/GALS ]
Beginning LAMARCKIAN GENETIC ALGORITHM (LGA), with a maximum of 2500000 energy evaluations.

Final-Value: -2.807


	FINAL GENETIC ALGORITHM DOCKED STATE
	_______________________________________________


Detailed state:  trans 2.501 17.873 33.545 quatxyzw 0.405483 -0.159353 0.291857 0.851475 center -1.190 15.842 33.892 ntor 29 -130.1718 137.5839 179.6050 41.3174 -99.2582 180.0000 -155.6203 -24.0261 -178.5833 126.6331 11.8152 -180.0000 -29.7438 -115.6443 14.9902 -178.8818 -41.0886 -137.9716 -144.6873 32.2582 78.5029 21.4161 -57.0264 -65.4099 -34.4837 90.3709 154.8063 57.0782 175.5558
State:	  2.501  17.873  33.545   0.773 -0.304  0.557 63.255   -130.17  137.58  179.61   41.32  -99.26  180.00 -155.62  -24.03 -178.58  126.63   11.82 -180.00  -29.74 -115.64   14.99 -178.88  -41.09 -137.97 -144.69   32.26   78.50   21.42  -57.03  -65.41  -34.48   90.37  154.81   57.08  175.56

DOCKED: MODEL        4
DOCKED: USER    Run = 4
DOCKED: USER    DPF = dock.dpf
DOCKED: USER  
DOCKED: USER    Estimated Free Energy of Binding    =   +5.12 kcal/mol  [=(1)+(2)+(3)-(4)]
DOCKED: USER    
DOCKED: USER    (1) Final Intermolecular Energy     =   -3.53 kcal/mol
DOCKED: USER        vdW + Hbond + desolv Energy     =   -5.35 kcal/mol
DOCKED: USER        Electrostatic Energy            =   +1.83 kcal/mol
DOCKED: USER    (2) Final Total Internal Energy     =   +0.72 kcal/mol
DOCKED: USER    (3) Torsional Free Energy           =   +8.65 kcal/mol
DOCKED: USER    (4) Unbound System's Energy  [=(2)] =   +0.72 kcal/mol
DOCKED: USER    
DOCKED: USER    
DOCKED: USER    NEWDPF move lig1bai.pdbqt
DOCKED: USER    NEWDPF about -1.190000 15.842000 33.892000
DOCKED: USER    NEWDPF tran0 2.500976 17.873307 33.544955
DOCKED: USER    NEWDPF quaternion0 0.405483 -0.159353 0.291857 0.851475
DOCKED: USER    NEWDPF axisangle0 0.773240 -0.303880 0.556558 63.255112
DOCKED: USER    NEWDPF quat0 0.773240 -0.303880 0.556558 63.255112
DOCKED: USER    NEWDPF dihe0 -130.17 137.58 179.61 41.32 -99.26 180.00 -155.62 -24.03 -178.58 126.63 11.82 -180.00 -29.74 -115.64 14.99 -178.88 -41.09 -137.97 -144.69 32.26 78.50 21.42 -57.03 -65.41 -34.48 90.37 154.81 57.08 175.56 
DOCKED: USER  keepresnum = 1 
DOCKED: USER  
DOCKED: REMARK  29 active torsions:
DOCKED: REMARK  status: ('A' for Active; 'I' for Inactive)
DOCKED: REMARK    1  A    between atoms: N_1  and  CA_2 
DOCKED: REMARK    2  A    between atoms: CA_2  and  C_9 
DOCKED: REMARK    3  A    between atoms: CA_2  and  CB_11 
DOCKED: REMARK    4  A    between atoms: CA1_3  and  CB1_12 
DOCKED: REMARK    5  A    between atoms: CA1_3  and  C1_42 
DOCKED: REMARK    6  A    between atoms: CA1_3  and  N1_43 
DOCKED: REMARK    7  A    between atoms: CA2_4  and  CB2_13 
DOCKED: REMARK    8  A    between atoms: CA2_4  and  C2_45 
DOCKED: REMARK    9  A    between atoms: CA2_4  and  N2_46 
DOCKED: REMARK   10  A    between atoms: CA3_5  and  CB3_14 
DOCKED: REMARK   11  A    between atoms: CA3_5  and  C3_48 
DOCKED: REMARK   12  A    between atoms: CA3_5  and  N3_49 
DOCKED: REMARK   13  A    between atoms: CA4_6  and  CB4_15 
DOCKED: REMARK   14  A    between atoms: CA4_6  and  C4_51 
DOCKED: REMARK   15  A    between atoms: CA4_6  and  N4_52 
DOCKED: REMARK   16  A    between atoms: CA5_7  and  C5_54 
DOCKED: REMARK   17  A    between atoms: CA5_7  and  N5_55 
DOCKED: REMARK   18  A    between atoms: CA6_8  and  CB6_17 
DOCKED: REMARK   19  A    between atoms: CA6_8  and  C6_57 
DOCKED: REMARK   20  A    between atoms: CA6_8  and  N6_58 
DOCKED: REMARK       I    between atoms: C_9  and  N1_43 
DOCKED: REMARK   21  A    between atoms: CB_11  and  CG_18 
DOCKED: REMARK   22  A    between atoms: CB2_13  and  CG3_21 
DOCKED: REMARK   23  A    between atoms: CB3_14  and  CG4_22 
DOCKED: REMARK   24  A    between atoms: CB4_15  and  CG5_23 
DOCKED: REMARK   25  A    between atoms: CB6_17  and  CG6_24 
DOCKED: REMARK   26  A    between atoms: CG_18  and  CD_25 
DOCKED: REMARK   27  A    between atoms: CG5_23  and  CD3_30 
DOCKED: REMARK   28  A    between atoms: CG6_24  and  CD4_31 
DOCKED: REMARK   29  A    between atoms: CD_25  and  NE_35 
DOCKED: REMARK       I    between atoms: NE_35  and  CZ_38 
DOCKED: REMARK       I    between atoms: CZ_38  and  NH1_40 
DOCKED: REMARK       I    between atoms: C1_42  and  N2_46 
DOCKED: REMARK       I    between atoms: C3_48  and  N4_52 
DOCKED: REMARK       I    between atoms: C4_51  and  N5_55 
DOCKED: REMARK       I    between atoms: C5_54  and  N6_58 
DOCKED: REMARK       I    between atoms: C6_57  and  N7_59 
DOCKED: USER                              x       y       z     vdW  Elec       q    Type
DOCKED: USER                           _______ _______ _______ _____ _____    ______ ____
DOCKED: ROOT
DOCKED: ATOM      1  CA3 0Q4 A 125       2.199  17.873  31.210 -0.05 -0.26    +0.177 C 
DOCKED: ENDROOT
DOCKED: BRANCH   1   2
DOCKED: ATOM      2  CB3 0Q4 A 125       1.687  16.700  30.322 -0.28 -0.07    +0.073 C 
DOCKED: BRANCH   2   3
DOCKED: ATOM      3  CG4 0Q4 A 125       0.292  16.282  30.572 +0.03 +0.04    -0.056 A 
DOCKED: ATOM      4  CD1 0Q4 A 125      -0.725  16.651  29.702 -0.33 -0.01    +0.007 A 
DOCKED: ATOM      5  CE1 0Q4 A 125      -2.055  16.218  29.909 -0.31 -0.00    +0.001 A 
DOCKED: ATOM      6  CZ1 0Q4 A 125      -2.370  15.412  31.008 -0.32 -0.00    +0.000 A 
DOCKED: ATOM      7  CE2 0Q4 A 125      -1.360  15.043  31.895 -0.33 -0.00    +0.001 A 
DOCKED: ATOM      8  CD2 0Q4 A 125      -0.022  15.485  31.668 +0.03 -0.00    +0.007 A 
DOCKED: ENDBRANCH   2   3
DOCKED: ENDBRANCH   1   2
DOCKED: BRANCH   1   9
DOCKED: ATOM      9  C3  0Q4 A 125       1.228  18.373  32.315 -0.15 -0.46    +0.241 C 
DOCKED: ATOM     10  O2  0Q4 A 125       0.992  19.578  32.435 +0.36 +0.84    -0.271 OA
DOCKED: ATOM     11  N4  0Q4 A 125       0.597  17.439  33.027 -0.10 +0.45    -0.346 N 
DOCKED: ATOM     12  H4  0Q4 A 125       0.823  16.492  32.900 +0.10 -0.14    +0.163 HD
DOCKED: BRANCH  11  13
DOCKED: ATOM     13  CA4 0Q4 A 125      -0.405  17.754  34.049 -0.21 -0.28    +0.177 C 
DOCKED: BRANCH  13  14
DOCKED: ATOM     14  CB4 0Q4 A 125      -1.649  18.389  33.366 -0.41 -0.08    +0.045 C 
DOCKED: BRANCH  14  15
DOCKED: ATOM     15  CG5 0Q4 A 125      -1.406  19.535  32.403 +0.32 -0.30    +0.116 C 
DOCKED: BRANCH  15  16
DOCKED: ATOM     16  CD3 0Q4 A 125      -1.258  19.077  30.945 -0.13 -0.35    +0.172 C 
DOCKED: ATOM     17  OE1 0Q4 A 125      -2.273  19.038  30.225 +0.06 +0.88    -0.648 OA
DOCKED: ATOM     18  OE2 0Q4 A 125      -0.126  18.754  30.496 +0.65 +1.55    -0.648 OA
DOCKED: ENDBRANCH  15  16
DOCKED: ENDBRANCH  14  15
DOCKED: ENDBRANCH  13  14
DOCKED: BRANCH  13  19
DOCKED: ATOM     19  C4  0Q4 A 125      -0.846  16.582  34.931 -0.16 -0.22    +0.241 C 
DOCKED: ATOM     20  O3  0Q4 A 125      -0.826  15.417  34.528 +0.87 +0.14    -0.271 OA
DOCKED: ATOM     21  N5  0Q4 A 125      -1.396  16.916  36.086 -0.15 +0.32    -0.346 N 
DOCKED: ATOM     22  H5  0Q4 A 125      -1.502  17.861  36.333 +0.05 -0.22    +0.163 HD
DOCKED: BRANCH  21  23
DOCKED: ATOM     23  CA5 0Q4 A 125      -1.849  15.902  37.015 +0.26 -0.09    +0.172 C 
DOCKED: ATOM     24  CB5 0Q4 A 125      -1.165  16.135  38.349 -0.36 -0.02    +0.042 C 
DOCKED: BRANCH  23  25
DOCKED: ATOM     25  C5  0Q4 A 125      -3.378  15.792  37.236 -0.19 -0.13    +0.240 C 
DOCKED: ATOM     26  O4  0Q4 A 125      -3.865  14.992  38.038 -0.38 +0.12    -0.271 OA
DOCKED: ATOM     27  N6  0Q4 A 125      -4.109  16.581  36.456 -0.05 +0.23    -0.346 N 
DOCKED: ATOM     28  H6  0Q4 A 125      -3.645  17.154  35.823 +0.11 -0.13    +0.163 HD
DOCKED: BRANCH  27  29
DOCKED: ATOM     29  CA6 0Q4 A 125      -5.566  16.583  36.435 -0.39 -0.12    +0.176 C 
DOCKED: BRANCH  29  30
DOCKED: ATOM     30  CB6 0Q4 A 125      -6.045  17.239  35.114 -0.51 -0.03    +0.035 C 
DOCKED: BRANCH  30  31
DOCKED: ATOM     31  CG6 0Q4 A 125      -4.951  17.837  34.161 -0.05 -0.00    +0.002 C 
DOCKED: BRANCH  31  32
DOCKED: ATOM     32  CD4 0Q4 A 125      -4.367  16.815  33.107 -0.35 +0.00    -0.004 C 
DOCKED: ATOM     33  CE  0Q4 A 125      -5.432  15.841  32.646 -0.30 -0.00    +0.005 C 
DOCKED: ENDBRANCH  31  32
DOCKED: ENDBRANCH  30  31
DOCKED: ENDBRANCH  29  30
DOCKED: BRANCH  29  34
DOCKED: ATOM     34  C6  0Q4 A 125      -5.994  15.106  36.474 -0.09 -0.14    +0.238 C 
DOCKED: ATOM     35  O5  0Q4 A 125      -6.994  14.747  37.163 +0.79 +0.16    -0.271 OA
DOCKED: ATOM     36  N7  0Q4 A 125      -5.282  14.303  35.821 -0.12 +0.21    -0.368 N 
DOCKED: ATOM     37  H72 0Q4 A 125      -4.477  14.592  35.265 +0.09 -0.10    +0.159 HD
DOCKED: ATOM     38  H71 0Q4 A 125      -5.566  13.324  35.847 +0.11 -0.08    +0.159 HD
DOCKED: ENDBRANCH  29  34
DOCKED: ENDBRANCH  27  29
DOCKED: ENDBRANCH  23  25
DOCKED: ENDBRANCH  21  23
DOCKED: ENDBRANCH  13  19
DOCKED: ENDBRANCH  11  13
DOCKED: ENDBRANCH   1   9
DOCKED: BRANCH   1  39
DOCKED: ATOM     39  N3  0Q4 A 125       3.387  17.390  31.923 -0.08 +0.35    -0.387 N 
DOCKED: ATOM     40  C2  0Q4 A 125       3.680  16.110  32.070 -0.32 -0.05    +0.081 C 
DOCKED: ATOM     41  H3  0Q4 A 125       4.005  18.048  32.295 +0.07 -0.13    +0.159 HD
DOCKED: BRANCH  40  42
DOCKED: ATOM     42  CA2 0Q4 A 125       4.980  15.810  32.803 -0.26 -0.08    +0.123 C 
DOCKED: BRANCH  42  43
DOCKED: ATOM     43  CB2 0Q4 A 125       5.834  14.749  32.066 +0.33 -0.02    +0.034 C 
DOCKED: BRANCH  43  44
DOCKED: ATOM     44  CG3 0Q4 A 125       7.334  14.707  32.472 -0.42 +0.01    -0.020 C 
DOCKED: ATOM     45  CD1 0Q4 A 125       8.270  14.484  31.284 -0.10 -0.01    +0.009 C 
DOCKED: ATOM     46  CD2 0Q4 A 125       7.713  15.989  33.189 -0.34 -0.01    +0.009 C 
DOCKED: ENDBRANCH  43  44
DOCKED: ENDBRANCH  42  43
DOCKED: BRANCH  42  47
DOCKED: ATOM     47  N2  0Q4 A 125       4.865  15.455  34.205 -0.04 +0.21    -0.350 N 
DOCKED: ATOM     48  C1  0Q4 A 125       3.696  15.473  34.819 -0.16 -0.12    +0.241 C 
DOCKED: ATOM     49  O1  0Q4 A 125       2.656  15.634  34.194 -0.19 +0.14    -0.271 OA
DOCKED: ATOM     50  HN2 0Q4 A 125       5.680  15.235  34.710 -0.00 -0.09    +0.163 HD
DOCKED: BRANCH  48  51
DOCKED: ATOM     51  CA1 0Q4 A 125       3.717  15.146  36.335 -0.23 -0.06    +0.180 C 
DOCKED: BRANCH  51  52
DOCKED: ATOM     52  CB1 0Q4 A 125       2.380  15.590  37.123 -0.40 -0.00    +0.009 C 
DOCKED: ATOM     53  CG1 0Q4 A 125       2.001  17.043  36.828 -0.36 -0.01    +0.012 C 
DOCKED: ATOM     54  CG2 0Q4 A 125       1.186  14.702  36.714 -0.34 -0.00    +0.012 C 
DOCKED: ENDBRANCH  51  52
DOCKED: BRANCH  51  55
DOCKED: ATOM     55  N1  0Q4 A 125       4.900  15.696  37.000 -0.05 +0.09    -0.346 N 
DOCKED: ATOM     56  C   0Q4 A 125       5.094  15.632  38.327 -0.16 -0.04    +0.249 C 
DOCKED: ATOM     57  O   0Q4 A 125       4.273  15.111  39.105 -0.15 +0.04    -0.271 OA
DOCKED: ATOM     58  H1  0Q4 A 125       5.568  16.098  36.404 +0.08 -0.05    +0.163 HD
DOCKED: BRANCH  56  59
DOCKED: ATOM     59  CA  0Q4 A 125       6.380  16.323  38.885 -0.15 +0.03    +0.274 C 
DOCKED: BRANCH  59  60
DOCKED: ATOM     60  N   0Q4 A 125       6.784  15.644  40.154 -0.19 -0.00    -0.067 N 
DOCKED: ATOM     61  H   0Q4 A 125       7.759  15.314  40.110 +0.07 +0.04    +0.275 HD
DOCKED: ATOM     62  H2  0Q4 A 125       6.666  16.363  40.911 +0.08 +0.03    +0.275 HD
DOCKED: ATOM     63  HN3 0Q4 A 125       6.170  14.835  40.341 +0.09 -0.02    +0.275 HD
DOCKED: ENDBRANCH  59  60
DOCKED: BRANCH  59  64
DOCKED: ATOM     64  CB  0Q4 A 125       7.555  16.283  37.900 -0.12 +0.01    +0.044 C 
DOCKED: BRANCH  64  65
DOCKED: ATOM     65  CG  0Q4 A 125       8.238  14.892  37.666 -0.15 -0.00    +0.023 C 
DOCKED: BRANCH  65  66
DOCKED: ATOM     66  CD  0Q4 A 125       7.289  13.727  37.212 -0.18 -0.02    +0.138 C 
DOCKED: BRANCH  66  67
DOCKED: ATOM     67  NE  0Q4 A 125       6.519  13.100  38.295 -0.12 +0.04    -0.227 N 
DOCKED: ATOM     68  CZ  0Q4 A 125       7.036  12.689  39.456 +0.04 -0.11    +0.665 C 
DOCKED: ATOM     69  NH1 0Q4 A 125       8.327  12.857  39.688 -0.03 +0.03    -0.235 N 
DOCKED: ATOM     70  NH2 0Q4 A 125       6.292  11.999  40.333 +0.02 +0.04    -0.235 N 
DOCKED: ATOM     71 HH11 0Q4 A 125       8.908  13.292  39.002 +0.04 -0.02    +0.174 HD
DOCKED: ATOM     72 HH12 0Q4 A 125       8.725  12.552  40.555 +0.03 -0.03    +0.174 HD
DOCKED: ATOM     73 HH21 0Q4 A 125       5.338  11.786  40.131 +0.12 -0.02    +0.174 HD
DOCKED: ATOM     74 HH22 0Q4 A 125       6.702  11.699  41.197 +0.04 -0.04    +0.174 HD
DOCKED: ATOM     75  HE  0Q4 A 125       5.554  12.968  38.167 +0.07 -0.03    +0.177 HD
DOCKED: ENDBRANCH  66  67
DOCKED: ENDBRANCH  65  66
DOCKED: ENDBRANCH  64  65
DOCKED: ENDBRANCH  59  64
DOCKED: ENDBRANCH  56  59
DOCKED: ENDBRANCH  51  55
DOCKED: ENDBRANCH  48  51
DOCKED: ENDBRANCH  42  47
DOCKED: ENDBRANCH  40  42
DOCKED: ENDBRANCH   1  39
DOCKED: TORSDOF 29
DOCKED: TER
DOCKED: ENDMDL
________________________________________________________________________________


	BEGINNING GENETIC ALGORITHM DOCKING 5 of 10
Run: 5 Seed: 1988751406 1575113646 [ Run 5 of 10 GA/GALS ]
Beginning LAMARCKIAN GENETIC ALGORITHM (LGA), with a maximum of 2500000 energy evaluations.

Final-Value: -11.615


	FINAL GENETIC ALGORITHM DOCKED STATE
	_______________________________________________


Detailed state:  trans -1.654 16.393 33.076 quatxyzw 0.189460 -0.970454 0.126893 -0.078874 center -1.190 15.842 33.892 ntor 29 -100.0627 -135.5704 163.9832 18.5693 -172.8525 -78.7114 60.5815 126.0869 -53.6929 -44.7227 170.0476 164.0548 -69.7045 5.6762 6.0159 84.5754 -127.8076 14.7941 -90.0079 -178.9316 -174.3642 174.5778 152.4230 26.5266 -144.0083 -129.7616 176.3055 -88.3245 141.4356
State:	 -1.654  16.393  33.076   0.190 -0.973  0.127 -170.952   -100.06 -135.57  163.98   18.57 -172.85  -78.71   60.58  126.09  -53.69  -44.72  170.05  164.05  -69.70    5.68    6.02   84.58 -127.81   14.79  -90.01 -178.93 -174.36  174.58  152.42   26.53 -144.01 -129.76  176.31  -88.32  141.44

DOCKED: MODEL        5
DOCKED: USER    Run = 5
DOCKED: USER    DPF = dock.dpf
DOCKED: USER  
DOCKED: USER    Estimated Free Energy of Binding    =   -1.70 kcal/mol  [=(1)+(2)+(3)-(4)]
DOCKED: USER    Estimated Inhibition Constant, Ki   =   56.66 mM (millimolar)  [Temperature = 298.15 K]
DOCKED: USER    
DOCKED: USER    (1) Final Intermolecular Energy     =  -10.35 kcal/mol
DOCKED: USER        vdW + Hbond + desolv Energy     =   -8.56 kcal/mol
DOCKED: USER        Electrostatic Energy            =   -1.80 kcal/mol
DOCKED: USER    (2) Final Total Internal Energy     =   -1.26 kcal/mol
DOCKED: USER    (3) Torsional Free Energy           =   +8.65 kcal/mol
DOCKED: USER    (4) Unbound System's Energy  [=(2)] =   -1.26 kcal/mol
DOCKED: USER    
DOCKED: USER    
DOCKED: USER    NEWDPF move lig1bai.pdbqt
DOCKED: USER    NEWDPF about -1.190000 15.842000 33.892000
DOCKED: USER    NEWDPF tran0 -1.653944 16.393256 33.075668
DOCKED: USER    NEWDPF quaternion0 0.189460 -0.970454 0.126893 -0.078874
DOCKED: USER    NEWDPF axisangle0 0.190053 -0.973487 0.127289 -170.952333
DOCKED: USER    NEWDPF quat0 0.190053 -0.973487 0.127289 -170.952333
DOCKED: USER    NEWDPF dihe0 -100.06 -135.57 163.98 18.57 -172.85 -78.71 60.58 126.09 -53.69 -44.72 170.05 164.05 -69.70 5.68 6.02 84.58 -127.81 14.79 -90.01 -178.93 -174.36 174.58 152.42 26.53 -144.01 -129.76 176.31 -88.32 141.44 
DOCKED: USER  keepresnum = 1 
DOCKED: USER  
DOCKED: REMARK  29 active torsions:
DOCKED: REMARK  status: ('A' for Active; 'I' for Inactive)
DOCKED: REMARK    1  A    between atoms: N_1  and  CA_2 
DOCKED: REMARK    2  A    between atoms: CA_2  and  C_9 
DOCKED: REMARK    3  A    between atoms: CA_2  and  CB_11 
DOCKED: REMARK    4  A    between atoms: CA1_3  and  CB1_12 
DOCKED: REMARK    5  A    between atoms: CA1_3  and  C1_42 
DOCKED: REMARK    6  A    between atoms: CA1_3  and  N1_43 
DOCKED: REMARK    7  A    between atoms: CA2_4  and  CB2_13 
DOCKED: REMARK    8  A    between atoms: CA2_4  and  C2_45 
DOCKED: REMARK    9  A    between atoms: CA2_4  and  N2_46 
DOCKED: REMARK   10  A    between atoms: CA3_5  and  CB3_14 
DOCKED: REMARK   11  A    between atoms: CA3_5  and  C3_48 
DOCKED: REMARK   12  A    between atoms: CA3_5  and  N3_49 
DOCKED: REMARK   13  A    between atoms: CA4_6  and  CB4_15 
DOCKED: REMARK   14  A    between atoms: CA4_6  and  C4_51 
DOCKED: REMARK   15  A    between atoms: CA4_6  and  N4_52 
DOCKED: REMARK   16  A    between atoms: CA5_7  and  C5_54 
DOCKED: REMARK   17  A    between atoms: CA5_7  and  N5_55 
DOCKED: REMARK   18  A    between atoms: CA6_8  and  CB6_17 
DOCKED: REMARK   19  A    between atoms: CA6_8  and  C6_57 
DOCKED: REMARK   20  A    between atoms: CA6_8  and  N6_58 
DOCKED: REMARK       I    between atoms: C_9  and  N1_43 
DOCKED: REMARK   21  A    between atoms: CB_11  and  CG_18 
DOCKED: REMARK   22  A    between atoms: CB2_13  and  CG3_21 
DOCKED: REMARK   23  A    between atoms: CB3_14  and  CG4_22 
DOCKED: REMARK   24  A    between atoms: CB4_15  and  CG5_23 
DOCKED: REMARK   25  A    between atoms: CB6_17  and  CG6_24 
DOCKED: REMARK   26  A    between atoms: CG_18  and  CD_25 
DOCKED: REMARK   27  A    between atoms: CG5_23  and  CD3_30 
DOCKED: REMARK   28  A    between atoms: CG6_24  and  CD4_31 
DOCKED: REMARK   29  A    between atoms: CD_25  and  NE_35 
DOCKED: REMARK       I    between atoms: NE_35  and  CZ_38 
DOCKED: REMARK       I    between atoms: CZ_38  and  NH1_40 
DOCKED: REMARK       I    between atoms: C1_42  and  N2_46 
DOCKED: REMARK       I    between atoms: C3_48  and  N4_52 
DOCKED: REMARK       I    between atoms: C4_51  and  N5_55 
DOCKED: REMARK       I    between atoms: C5_54  and  N6_58 
DOCKED: REMARK       I    between atoms: C6_57  and  N7_59 
DOCKED: USER                              x       y       z     vdW  Elec       q    Type
DOCKED: USER                           _______ _______ _______ _____ _____    ______ ____
DOCKED: ROOT
DOCKED: ATOM      1  CA3 0Q4 A 125      -2.011  18.429  34.203 -0.22 -0.32    +0.177 C 
DOCKED: ENDROOT
DOCKED: BRANCH   1   2
DOCKED: ATOM      2  CB3 0Q4 A 125      -2.157  18.647  35.739 +1.06 -0.13    +0.073 C 
DOCKED: BRANCH   2   3
DOCKED: ATOM      3  CG4 0Q4 A 125      -1.516  17.619  36.585 +0.04 +0.06    -0.056 A 
DOCKED: ATOM      4  CD1 0Q4 A 125      -0.183  17.735  36.953 -0.28 -0.01    +0.007 A 
DOCKED: ATOM      5  CE1 0Q4 A 125       0.426  16.779  37.800 -0.39 -0.00    +0.001 A 
DOCKED: ATOM      6  CZ1 0Q4 A 125      -0.311  15.690  38.277 -0.29 -0.00    +0.000 A 
DOCKED: ATOM      7  CE2 0Q4 A 125      -1.648  15.557  37.906 +0.23 -0.00    +0.001 A 
DOCKED: ATOM      8  CD2 0Q4 A 125      -2.248  16.533  37.054 -0.14 -0.00    +0.007 A 
DOCKED: ENDBRANCH   2   3
DOCKED: ENDBRANCH   1   2
DOCKED: BRANCH   1   9
DOCKED: ATOM      9  C3  0Q4 A 125      -0.671  17.807  33.722 -0.22 -0.38    +0.241 C 
DOCKED: ATOM     10  O2  0Q4 A 125       0.146  18.495  33.105 -0.30 +0.55    -0.271 OA
DOCKED: ATOM     11  N4  0Q4 A 125      -0.417  16.556  34.107 -0.08 +0.32    -0.346 N 
DOCKED: ATOM     12  H4  0Q4 A 125      -1.101  16.045  34.592 +0.10 -0.12    +0.163 HD
DOCKED: BRANCH  11  13
DOCKED: ATOM     13  CA4 0Q4 A 125       0.837  15.863  33.798 -0.25 -0.11    +0.177 C 
DOCKED: BRANCH  13  14
DOCKED: ATOM     14  CB4 0Q4 A 125       1.222  16.141  32.318 -0.29 -0.03    +0.045 C 
DOCKED: BRANCH  14  15
DOCKED: ATOM     15  CG5 0Q4 A 125       2.684  16.411  32.018 -0.29 -0.09    +0.116 C 
DOCKED: BRANCH  15  16
DOCKED: ATOM     16  CD3 0Q4 A 125       2.914  16.999  30.617 -0.30 -0.15    +0.172 C 
DOCKED: ATOM     17  OE1 0Q4 A 125       4.075  17.286  30.274 +0.05 +0.49    -0.648 OA
DOCKED: ATOM     18  OE2 0Q4 A 125       1.939  17.179  29.840 +0.02 +0.67    -0.648 OA
DOCKED: ENDBRANCH  15  16
DOCKED: ENDBRANCH  14  15
DOCKED: ENDBRANCH  13  14
DOCKED: BRANCH  13  19
DOCKED: ATOM     19  C4  0Q4 A 125       2.022  16.197  34.709 -0.19 -0.16    +0.241 C 
DOCKED: ATOM     20  O3  0Q4 A 125       2.648  15.323  35.313 -0.19 +0.10    -0.271 OA
DOCKED: ATOM     21  N5  0Q4 A 125       2.226  17.485  34.928 -0.10 +0.35    -0.346 N 
DOCKED: ATOM     22  H5  0Q4 A 125       1.638  18.159  34.520 +0.05 -0.24    +0.163 HD
DOCKED: BRANCH  21  23
DOCKED: ATOM     23  CA5 0Q4 A 125       3.318  17.934  35.765 +0.46 -0.16    +0.172 C 
DOCKED: ATOM     24  CB5 0Q4 A 125       2.842  17.950  37.205 -0.35 -0.03    +0.042 C 
DOCKED: BRANCH  23  25
DOCKED: ATOM     25  C5  0Q4 A 125       4.641  17.133  35.673 -0.12 -0.13    +0.240 C 
DOCKED: ATOM     26  O4  0Q4 A 125       5.158  16.612  36.663 -0.09 +0.08    -0.271 OA
DOCKED: ATOM     27  N6  0Q4 A 125       5.191  17.108  34.463 -0.08 +0.20    -0.346 N 
DOCKED: ATOM     28  H6  0Q4 A 125       4.736  17.580  33.745 -0.02 -0.12    +0.163 HD
DOCKED: BRANCH  27  29
DOCKED: ATOM     29  CA6 0Q4 A 125       6.475  16.487  34.164 -0.19 -0.09    +0.176 C 
DOCKED: BRANCH  29  30
DOCKED: ATOM     30  CB6 0Q4 A 125       6.897  16.883  32.726 -0.37 -0.02    +0.035 C 
DOCKED: BRANCH  30  31
DOCKED: ATOM     31  CG6 0Q4 A 125       7.735  15.843  31.901 -0.46 -0.00    +0.002 C 
DOCKED: BRANCH  31  32
DOCKED: ATOM     32  CD4 0Q4 A 125       6.912  14.600  31.380 -0.55 +0.00    -0.004 C 
DOCKED: ATOM     33  CE  0Q4 A 125       5.854  15.028  30.383 -0.53 -0.00    +0.005 C 
DOCKED: ENDBRANCH  31  32
DOCKED: ENDBRANCH  30  31
DOCKED: ENDBRANCH  29  30
DOCKED: BRANCH  29  34
DOCKED: ATOM     34  C6  0Q4 A 125       7.474  17.062  35.182 -0.14 -0.06    +0.238 C 
DOCKED: ATOM     35  O5  0Q4 A 125       7.709  18.305  35.216 -0.25 +0.03    -0.271 OA
DOCKED: ATOM     36  N7  0Q4 A 125       8.046  16.230  35.930 -0.04 +0.05    -0.368 N 
DOCKED: ATOM     37  H72 0Q4 A 125       7.857  15.229  35.903 +0.07 -0.04    +0.159 HD
DOCKED: ATOM     38  H71 0Q4 A 125       8.709  16.612  36.605 +0.04 +0.03    +0.159 HD
DOCKED: ENDBRANCH  29  34
DOCKED: ENDBRANCH  27  29
DOCKED: ENDBRANCH  23  25
DOCKED: ENDBRANCH  21  23
DOCKED: ENDBRANCH  13  19
DOCKED: ENDBRANCH  11  13
DOCKED: ENDBRANCH   1   9
DOCKED: BRANCH   1  39
DOCKED: ATOM     39  N3  0Q4 A 125      -3.051  17.475  33.801 -0.12 +0.42    -0.387 N 
DOCKED: ATOM     40  C2  0Q4 A 125      -3.232  16.304  34.384 -0.23 -0.06    +0.081 C 
DOCKED: ATOM     41  H3  0Q4 A 125      -3.654  17.725  33.075 -0.15 -0.19    +0.159 HD
DOCKED: BRANCH  40  42
DOCKED: ATOM     42  CA2 0Q4 A 125      -4.394  15.474  33.853 -0.28 -0.09    +0.123 C 
DOCKED: BRANCH  42  43
DOCKED: ATOM     43  CB2 0Q4 A 125      -4.019  14.704  32.564 +0.99 -0.03    +0.034 C 
DOCKED: BRANCH  43  44
DOCKED: ATOM     44  CG3 0Q4 A 125      -3.317  15.551  31.466 -0.32 +0.01    -0.020 C 
DOCKED: ATOM     45  CD1 0Q4 A 125      -3.338  14.885  30.090 -0.35 -0.00    +0.009 C 
DOCKED: ATOM     46  CD2 0Q4 A 125      -3.958  16.924  31.381 -0.21 -0.01    +0.009 C 
DOCKED: ENDBRANCH  43  44
DOCKED: ENDBRANCH  42  43
DOCKED: BRANCH  42  47
DOCKED: ATOM     47  N2  0Q4 A 125      -5.650  16.172  33.655 -0.10 +0.29    -0.350 N 
DOCKED: ATOM     48  C1  0Q4 A 125      -6.369  15.985  32.564 -0.18 -0.22    +0.241 C 
DOCKED: ATOM     49  O1  0Q4 A 125      -6.085  15.104  31.762 -0.08 +0.24    -0.271 OA
DOCKED: ATOM     50  HN2 0Q4 A 125      -5.946  16.824  34.330 +0.11 -0.13    +0.163 HD
DOCKED: BRANCH  48  51
DOCKED: ATOM     51  CA1 0Q4 A 125      -7.654  16.845  32.437 -0.25 -0.21    +0.180 C 
DOCKED: BRANCH  51  52
DOCKED: ATOM     52  CB1 0Q4 A 125      -9.021  16.033  32.716 -0.31 -0.01    +0.009 C 
DOCKED: ATOM     53  CG1 0Q4 A 125      -9.990  16.128  31.535 -0.14 -0.02    +0.012 C 
DOCKED: ATOM     54  CG2 0Q4 A 125      -8.726  14.539  32.961 -0.43 -0.01    +0.012 C 
DOCKED: ENDBRANCH  51  52
DOCKED: BRANCH  51  55
DOCKED: ATOM     55  N1  0Q4 A 125      -7.729  17.533  31.148 +0.00 +0.52    -0.346 N 
DOCKED: ATOM     56  C   0Q4 A 125      -7.100  17.099  30.044 -0.12 -0.24    +0.249 C 
DOCKED: ATOM     57  O   0Q4 A 125      -6.384  16.080  30.033 -0.08 +0.20    -0.271 OA
DOCKED: ATOM     58  H1  0Q4 A 125      -8.300  18.331  31.130 +0.35 -0.44    +0.163 HD
DOCKED: BRANCH  56  59
DOCKED: ATOM     59  CA  0Q4 A 125      -7.232  17.984  28.763 -0.12 -0.21    +0.274 C 
DOCKED: BRANCH  59  60
DOCKED: ATOM     60  N   0Q4 A 125      -8.665  18.377  28.591 -0.19 +0.07    -0.067 N 
DOCKED: ATOM     61  H   0Q4 A 125      -9.089  17.907  27.779 +0.07 -0.16    +0.275 HD
DOCKED: ATOM     62  H2  0Q4 A 125      -9.145  18.093  29.482 -0.37 -0.58    +0.275 HD
DOCKED: ATOM     63  HN3 0Q4 A 125      -8.744  19.398  28.461 +0.05 -0.28    +0.275 HD
DOCKED: ENDBRANCH  59  60
DOCKED: BRANCH  59  64
DOCKED: ATOM     64  CB  0Q4 A 125      -6.369  19.250  28.819 -0.38 -0.03    +0.044 C 
DOCKED: BRANCH  64  65
DOCKED: ATOM     65  CG  0Q4 A 125      -4.854  19.092  28.449 -0.20 -0.01    +0.023 C 
DOCKED: BRANCH  65  66
DOCKED: ATOM     66  CD  0Q4 A 125      -4.201  17.709  28.797 -0.23 -0.09    +0.138 C 
DOCKED: BRANCH  66  67
DOCKED: ATOM     67  NE  0Q4 A 125      -2.762  17.617  28.515 -0.19 +0.15    -0.227 N 
DOCKED: ATOM     68  CZ  0Q4 A 125      -1.807  18.217  29.231 +0.01 -0.65    +0.665 C 
DOCKED: ATOM     69  NH1 0Q4 A 125      -2.144  18.940  30.286 -0.17 +0.32    -0.235 N 
DOCKED: ATOM     70  NH2 0Q4 A 125      -0.529  18.198  28.824 -0.11 +0.26    -0.235 N 
DOCKED: ATOM     71 HH11 0Q4 A 125      -3.103  19.032  30.546 -0.44 -0.26    +0.174 HD
DOCKED: ATOM     72 HH12 0Q4 A 125      -1.435  19.394  30.829 +0.01 -0.36    +0.174 HD
DOCKED: ATOM     73 HH21 0Q4 A 125      -0.273  17.731  27.979 +0.21 -0.14    +0.174 HD
DOCKED: ATOM     74 HH22 0Q4 A 125       0.170  18.656  29.376 -0.09 -0.33    +0.174 HD
DOCKED: ATOM     75  HE  0Q4 A 125      -2.470  17.080  27.746 +0.11 -0.09    +0.177 HD
DOCKED: ENDBRANCH  66  67
DOCKED: ENDBRANCH  65  66
DOCKED: ENDBRANCH  64  65
DOCKED: ENDBRANCH  59  64
DOCKED: ENDBRANCH  56  59
DOCKED: ENDBRANCH  51  55
DOCKED: ENDBRANCH  48  51
DOCKED: ENDBRANCH  42  47
DOCKED: ENDBRANCH  40  42
DOCKED: ENDBRANCH   1  39
DOCKED: TORSDOF 29
DOCKED: TER
DOCKED: ENDMDL
________________________________________________________________________________


	BEGINNING GENETIC ALGORITHM DOCKING 6 of 10
Run: 6 Seed: 1943865925 110916956 [ Run 6 of 10 GA/GALS ]
Beginning LAMARCKIAN GENETIC ALGORITHM (LGA), with a maximum of 2500000 energy evaluations.

Final-Value: -15.686


	FINAL GENETIC ALGORITHM DOCKED STATE
	_______________________________________________


Detailed state:  trans 0.588 17.295 34.345 quatxyzw -0.102482 -0.334645 0.936416 0.025203 center -1.190 15.842 33.892 ntor 29 -86.5181 70.4755 101.6632 155.9048 11.1668 -140.8328 60.4167 -79.7028 -129.1967 -119.3154 25.6904 -142.4218 156.5446 -152.7048 16.1558 -54.9165 159.9095 -136.1102 -135.5230 -71.1834 -117.3844 -68.2515 98.8115 -175.0857 64.3716 -148.8844 -113.6747 -163.6597 -169.1527
State:	  0.588  17.295  34.345  -0.103 -0.335  0.937 177.112    -86.52   70.48  101.66  155.90   11.17 -140.83   60.42  -79.70 -129.20 -119.32   25.69 -142.42  156.54 -152.70   16.16  -54.92  159.91 -136.11 -135.52  -71.18 -117.38  -68.25   98.81 -175.09   64.37 -148.88 -113.67 -163.66 -169.15

DOCKED: MODEL        6
DOCKED: USER    Run = 6
DOCKED: USER    DPF = dock.dpf
DOCKED: USER  
DOCKED: USER    Estimated Free Energy of Binding    =   -6.08 kcal/mol  [=(1)+(2)+(3)-(4)]
DOCKED: USER    Estimated Inhibition Constant, Ki   =   34.87 uM (micromolar)  [Temperature = 298.15 K]
DOCKED: USER    
DOCKED: USER    (1) Final Intermolecular Energy     =  -14.73 kcal/mol
DOCKED: USER        vdW + Hbond + desolv Energy     =  -11.98 kcal/mol
DOCKED: USER        Electrostatic Energy            =   -2.75 kcal/mol
DOCKED: USER    (2) Final Total Internal Energy     =   -0.95 kcal/mol
DOCKED: USER    (3) Torsional Free Energy           =   +8.65 kcal/mol
DOCKED: USER    (4) Unbound System's Energy  [=(2)] =   -0.95 kcal/mol
DOCKED: USER    
DOCKED: USER    
DOCKED: USER    NEWDPF move lig1bai.pdbqt
DOCKED: USER    NEWDPF about -1.190000 15.842000 33.892000
DOCKED: USER    NEWDPF tran0 0.588215 17.295014 34.345182
DOCKED: USER    NEWDPF quaternion0 -0.102482 -0.334645 0.936416 0.025203
DOCKED: USER    NEWDPF axisangle0 -0.102514 -0.334752 0.936713 177.111643
DOCKED: USER    NEWDPF quat0 -0.102514 -0.334752 0.936713 177.111643
DOCKED: USER    NEWDPF dihe0 -86.52 70.48 101.66 155.90 11.17 -140.83 60.42 -79.70 -129.20 -119.32 25.69 -142.42 156.54 -152.70 16.16 -54.92 159.91 -136.11 -135.52 -71.18 -117.38 -68.25 98.81 -175.09 64.37 -148.88 -113.67 -163.66 -169.15 
DOCKED: USER  keepresnum = 1 
DOCKED: USER  
DOCKED: REMARK  29 active torsions:
DOCKED: REMARK  status: ('A' for Active; 'I' for Inactive)
DOCKED: REMARK    1  A    between atoms: N_1  and  CA_2 
DOCKED: REMARK    2  A    between atoms: CA_2  and  C_9 
DOCKED: REMARK    3  A    between atoms: CA_2  and  CB_11 
DOCKED: REMARK    4  A    between atoms: CA1_3  and  CB1_12 
DOCKED: REMARK    5  A    between atoms: CA1_3  and  C1_42 
DOCKED: REMARK    6  A    between atoms: CA1_3  and  N1_43 
DOCKED: REMARK    7  A    between atoms: CA2_4  and  CB2_13 
DOCKED: REMARK    8  A    between atoms: CA2_4  and  C2_45 
DOCKED: REMARK    9  A    between atoms: CA2_4  and  N2_46 
DOCKED: REMARK   10  A    between atoms: CA3_5  and  CB3_14 
DOCKED: REMARK   11  A    between atoms: CA3_5  and  C3_48 
DOCKED: REMARK   12  A    between atoms: CA3_5  and  N3_49 
DOCKED: REMARK   13  A    between atoms: CA4_6  and  CB4_15 
DOCKED: REMARK   14  A    between atoms: CA4_6  and  C4_51 
DOCKED: REMARK   15  A    between atoms: CA4_6  and  N4_52 
DOCKED: REMARK   16  A    between atoms: CA5_7  and  C5_54 
DOCKED: REMARK   17  A    between atoms: CA5_7  and  N5_55 
DOCKED: REMARK   18  A    between atoms: CA6_8  and  CB6_17 
DOCKED: REMARK   19  A    between atoms: CA6_8  and  C6_57 
DOCKED: REMARK   20  A    between atoms: CA6_8  and  N6_58 
DOCKED: REMARK       I    between atoms: C_9  and  N1_43 
DOCKED: REMARK   21  A    between atoms: CB_11  and  CG_18 
DOCKED: REMARK   22  A    between atoms: CB2_13  and  CG3_21 
DOCKED: REMARK   23  A    between atoms: CB3_14  and  CG4_22 
DOCKED: REMARK   24  A    between atoms: CB4_15  and  CG5_23 
DOCKED: REMARK   25  A    between atoms: CB6_17  and  CG6_24 
DOCKED: REMARK   26  A    between atoms: CG_18  and  CD_25 
DOCKED: REMARK   27  A    between atoms: CG5_23  and  CD3_30 
DOCKED: REMARK   28  A    between atoms: CG6_24  and  CD4_31 
DOCKED: REMARK   29  A    between atoms: CD_25  and  NE_35 
DOCKED: REMARK       I    between atoms: NE_35  and  CZ_38 
DOCKED: REMARK       I    between atoms: CZ_38  and  NH1_40 
DOCKED: REMARK       I    between atoms: C1_42  and  N2_46 
DOCKED: REMARK       I    between atoms: C3_48  and  N4_52 
DOCKED: REMARK       I    between atoms: C4_51  and  N5_55 
DOCKED: REMARK       I    between atoms: C5_54  and  N6_58 
DOCKED: REMARK       I    between atoms: C6_57  and  N7_59 
DOCKED: USER                              x       y       z     vdW  Elec       q    Type
DOCKED: USER                           _______ _______ _______ _____ _____    ______ ____
DOCKED: ROOT
DOCKED: ATOM      1  CA3 0Q4 A 125       1.218  16.972  32.099 -0.25 -0.19    +0.177 C 
DOCKED: ENDROOT
DOCKED: BRANCH   1   2
DOCKED: ATOM      2  CB3 0Q4 A 125       1.115  17.998  30.931 +0.23 -0.13    +0.073 C 
DOCKED: BRANCH   2   3
DOCKED: ATOM      3  CG4 0Q4 A 125       0.078  17.702  29.921 -0.29 +0.07    -0.056 A 
DOCKED: ATOM      4  CD1 0Q4 A 125      -0.680  18.722  29.363 -0.33 -0.01    +0.007 A 
DOCKED: ATOM      5  CE1 0Q4 A 125      -1.643  18.452  28.363 -0.30 -0.00    +0.001 A 
DOCKED: ATOM      6  CZ1 0Q4 A 125      -1.853  17.141  27.923 +0.11 -0.00    +0.000 A 
DOCKED: ATOM      7  CE2 0Q4 A 125      -1.105  16.106  28.483 -0.37 -0.00    +0.001 A 
DOCKED: ATOM      8  CD2 0Q4 A 125      -0.135  16.396  29.489 -0.03 -0.01    +0.007 A 
DOCKED: ENDBRANCH   2   3
DOCKED: ENDBRANCH   1   2
DOCKED: BRANCH   1   9
DOCKED: ATOM      9  C3  0Q4 A 125       2.103  17.392  33.306 -0.22 -0.26    +0.241 C 
DOCKED: ATOM     10  O2  0Q4 A 125       3.163  17.994  33.119 -0.23 +0.29    -0.271 OA
DOCKED: ATOM     11  N4  0Q4 A 125       1.603  17.171  34.522 -0.09 +0.35    -0.346 N 
DOCKED: ATOM     12  H4  0Q4 A 125       0.758  16.682  34.623 +0.10 -0.15    +0.163 HD
DOCKED: BRANCH  11  13
DOCKED: ATOM     13  CA4 0Q4 A 125       2.284  17.582  35.753 -0.23 -0.17    +0.177 C 
DOCKED: BRANCH  13  14
DOCKED: ATOM     14  CB4 0Q4 A 125       1.279  17.523  36.938 -0.39 -0.04    +0.045 C 
DOCKED: BRANCH  14  15
DOCKED: ATOM     15  CG5 0Q4 A 125       0.724  16.162  37.313 -0.40 -0.06    +0.116 C 
DOCKED: BRANCH  15  16
DOCKED: ATOM     16  CD3 0Q4 A 125       0.796  15.875  38.820 -0.49 -0.06    +0.172 C 
DOCKED: ATOM     17  OE1 0Q4 A 125       0.827  16.837  39.610 +0.14 +0.24    -0.648 OA
DOCKED: ATOM     18  OE2 0Q4 A 125       0.819  14.687  39.237 +0.15 +0.10    -0.648 OA
DOCKED: ENDBRANCH  15  16
DOCKED: ENDBRANCH  14  15
DOCKED: ENDBRANCH  13  14
DOCKED: BRANCH  13  19
DOCKED: ATOM     19  C4  0Q4 A 125       3.547  16.791  36.110 -0.15 -0.13    +0.241 C 
DOCKED: ATOM     20  O3  0Q4 A 125       3.632  16.131  37.148 -0.13 +0.10    -0.271 OA
DOCKED: ATOM     21  N5  0Q4 A 125       4.586  16.992  35.317 -0.05 +0.20    -0.346 N 
DOCKED: ATOM     22  H5  0Q4 A 125       4.521  17.614  34.559 -0.16 -0.13    +0.163 HD
DOCKED: BRANCH  21  23
DOCKED: ATOM     23  CA5 0Q4 A 125       5.837  16.300  35.542 -0.14 -0.06    +0.172 C 
DOCKED: ATOM     24  CB5 0Q4 A 125       5.559  15.067  36.381 -0.24 -0.01    +0.042 C 
DOCKED: BRANCH  23  25
DOCKED: ATOM     25  C5  0Q4 A 125       6.644  15.892  34.284 -0.15 -0.12    +0.240 C 
DOCKED: ATOM     26  O4  0Q4 A 125       7.606  15.123  34.348 -0.20 +0.15    -0.271 OA
DOCKED: ATOM     27  N6  0Q4 A 125       6.250  16.478  33.159 -0.08 +0.20    -0.346 N 
DOCKED: ATOM     28  H6  0Q4 A 125       5.506  17.102  33.205 +0.09 -0.09    +0.163 HD
DOCKED: BRANCH  27  29
DOCKED: ATOM     29  CA6 0Q4 A 125       6.916  16.306  31.874 -0.32 -0.12    +0.176 C 
DOCKED: BRANCH  29  30
DOCKED: ATOM     30  CB6 0Q4 A 125       6.529  17.489  30.949 -0.51 -0.02    +0.035 C 
DOCKED: BRANCH  30  31
DOCKED: ATOM     31  CG6 0Q4 A 125       6.443  17.209  29.408 -0.62 -0.00    +0.002 C 
DOCKED: BRANCH  31  32
DOCKED: ATOM     32  CD4 0Q4 A 125       6.495  15.681  29.012 -0.31 +0.00    -0.004 C 
DOCKED: ATOM     33  CE  0Q4 A 125       5.156  15.013  29.247 -0.56 -0.00    +0.005 C 
DOCKED: ENDBRANCH  31  32
DOCKED: ENDBRANCH  30  31
DOCKED: ENDBRANCH  29  30
DOCKED: BRANCH  29  34
DOCKED: ATOM     34  C6  0Q4 A 125       8.425  16.340  32.169 -0.26 -0.26    +0.238 C 
DOCKED: ATOM     35  O5  0Q4 A 125       9.242  15.761  31.394 -0.22 +0.43    -0.271 OA
DOCKED: ATOM     36  N7  0Q4 A 125       8.774  16.935  33.218 -0.13 +0.32    -0.368 N 
DOCKED: ATOM     37  H72 0Q4 A 125       8.117  17.402  33.843 +0.08 -0.08    +0.159 HD
DOCKED: ATOM     38  H71 0Q4 A 125       9.775  16.958  33.413 +0.05 -0.17    +0.159 HD
DOCKED: ENDBRANCH  29  34
DOCKED: ENDBRANCH  27  29
DOCKED: ENDBRANCH  23  25
DOCKED: ENDBRANCH  21  23
DOCKED: ENDBRANCH  13  19
DOCKED: ENDBRANCH  11  13
DOCKED: ENDBRANCH   1   9
DOCKED: BRANCH   1  39
DOCKED: ATOM     39  N3  0Q4 A 125      -0.133  16.802  32.647 -0.05 +0.39    -0.387 N 
DOCKED: ATOM     40  C2  0Q4 A 125      -1.184  17.477  32.218 -0.32 -0.10    +0.081 C 
DOCKED: ATOM     41  H3  0Q4 A 125      -0.268  16.142  33.353 +0.09 -0.12    +0.159 HD
DOCKED: BRANCH  40  42
DOCKED: ATOM     42  CA2 0Q4 A 125      -2.510  17.126  32.881 -0.27 -0.13    +0.123 C 
DOCKED: BRANCH  42  43
DOCKED: ATOM     43  CB2 0Q4 A 125      -2.330  16.133  34.055 -0.05 -0.03    +0.034 C 
DOCKED: BRANCH  43  44
DOCKED: ATOM     44  CG3 0Q4 A 125      -2.476  16.750  35.474 -0.30 +0.02    -0.020 C 
DOCKED: ATOM     45  CD1 0Q4 A 125      -2.154  18.243  35.514 -0.12 -0.01    +0.009 C 
DOCKED: ATOM     46  CD2 0Q4 A 125      -3.880  16.513  36.000 -0.38 -0.01    +0.009 C 
DOCKED: ENDBRANCH  43  44
DOCKED: ENDBRANCH  42  43
DOCKED: BRANCH  42  47
DOCKED: ATOM     47  N2  0Q4 A 125      -3.567  16.658  32.005 -0.08 +0.31    -0.350 N 
DOCKED: ATOM     48  C1  0Q4 A 125      -4.059  15.438  32.122 -0.17 -0.18    +0.241 C 
DOCKED: ATOM     49  O1  0Q4 A 125      -3.756  14.721  33.067 -0.15 +0.19    -0.271 OA
DOCKED: ATOM     50  HN2 0Q4 A 125      -3.891  17.250  31.290 -0.07 -0.16    +0.163 HD
DOCKED: BRANCH  48  51
DOCKED: ATOM     51  CA1 0Q4 A 125      -5.133  15.033  31.078 -0.06 -0.14    +0.180 C 
DOCKED: BRANCH  51  52
DOCKED: ATOM     52  CB1 0Q4 A 125      -4.671  15.240  29.545 -0.30 -0.00    +0.009 C 
DOCKED: ATOM     53  CG1 0Q4 A 125      -3.434  14.406  29.206 -0.40 -0.01    +0.012 C 
DOCKED: ATOM     54  CG2 0Q4 A 125      -5.797  14.825  28.576 -0.26 -0.01    +0.012 C 
DOCKED: ENDBRANCH  51  52
DOCKED: BRANCH  51  55
DOCKED: ATOM     55  N1  0Q4 A 125      -6.411  15.706  31.316 -0.07 +0.29    -0.346 N 
DOCKED: ATOM     56  C   0Q4 A 125      -6.827  16.087  32.534 -0.19 -0.23    +0.249 C 
DOCKED: ATOM     57  O   0Q4 A 125      -6.162  15.885  33.568 -0.18 +0.24    -0.271 OA
DOCKED: ATOM     58  H1  0Q4 A 125      -6.945  15.889  30.513 +0.07 -0.13    +0.163 HD
DOCKED: BRANCH  56  59
DOCKED: ATOM     59  CA  0Q4 A 125      -8.245  16.737  32.624 -0.17 -0.36    +0.274 C 
DOCKED: BRANCH  59  60
DOCKED: ATOM     60  N   0Q4 A 125      -8.950  16.546  31.319 -0.12 +0.10    -0.067 N 
DOCKED: ATOM     61  H   0Q4 A 125      -9.924  16.877  31.366 -0.29 -0.60    +0.275 HD
DOCKED: ATOM     62  H2  0Q4 A 125      -8.399  17.101  30.616 +0.04 -0.43    +0.275 HD
DOCKED: ATOM     63  HN3 0Q4 A 125      -8.951  15.549  31.053 +0.10 -0.28    +0.275 HD
DOCKED: ENDBRANCH  59  60
DOCKED: BRANCH  59  64
DOCKED: ATOM     64  CB  0Q4 A 125      -9.104  16.145  33.748 -0.04 -0.07    +0.044 C 
DOCKED: BRANCH  64  65
DOCKED: ATOM     65  CG  0Q4 A 125      -9.598  14.669  33.559 -0.39 -0.02    +0.023 C 
DOCKED: BRANCH  65  66
DOCKED: ATOM     66  CD  0Q4 A 125     -11.103  14.494  33.149 -0.23 -0.13    +0.138 C 
DOCKED: BRANCH  66  67
DOCKED: ATOM     67  NE  0Q4 A 125     -11.566  15.409  32.098 -0.08 +0.23    -0.227 N 
DOCKED: ATOM     68  CZ  0Q4 A 125     -12.019  16.647  32.313 +0.04 -0.93    +0.665 C 
DOCKED: ATOM     69  NH1 0Q4 A 125     -12.051  17.121  33.547 -0.09 +0.46    -0.235 N 
DOCKED: ATOM     70  NH2 0Q4 A 125     -12.555  17.365  31.315 -0.05 +0.31    -0.235 N 
DOCKED: ATOM     71 HH11 0Q4 A 125     -11.735  16.559  34.310 -0.52 -0.47    +0.174 HD
DOCKED: ATOM     72 HH12 0Q4 A 125     -12.389  18.048  33.719 -0.05 -0.36    +0.174 HD
DOCKED: ATOM     73 HH21 0Q4 A 125     -12.621  16.985  30.394 +0.01 -0.17    +0.174 HD
DOCKED: ATOM     74 HH22 0Q4 A 125     -12.890  18.291  31.501 -0.04 -0.23    +0.174 HD
DOCKED: ATOM     75  HE  0Q4 A 125     -11.548  15.099  31.165 +0.05 -0.14    +0.177 HD
DOCKED: ENDBRANCH  66  67
DOCKED: ENDBRANCH  65  66
DOCKED: ENDBRANCH  64  65
DOCKED: ENDBRANCH  59  64
DOCKED: ENDBRANCH  56  59
DOCKED: ENDBRANCH  51  55
DOCKED: ENDBRANCH  48  51
DOCKED: ENDBRANCH  42  47
DOCKED: ENDBRANCH  40  42
DOCKED: ENDBRANCH   1  39
DOCKED: TORSDOF 29
DOCKED: TER
DOCKED: ENDMDL
________________________________________________________________________________


	BEGINNING GENETIC ALGORITHM DOCKING 7 of 10
Run: 7 Seed: 852497123 1341644209 [ Run 7 of 10 GA/GALS ]
Beginning LAMARCKIAN GENETIC ALGORITHM (LGA), with a maximum of 2500000 energy evaluations.

Final-Value: -19.449


	FINAL GENETIC ALGORITHM DOCKED STATE
	_______________________________________________


Detailed state:  trans -0.925 16.809 33.334 quatxyzw -0.306177 0.831808 0.252484 -0.388077 center -1.190 15.842 33.892 ntor 29 162.4188 136.0594 -117.1976 3.4576 137.6395 90.6599 -26.1623 3.2615 -179.1024 120.1947 169.5345 -123.6646 112.0627 20.6692 -139.4250 -121.9329 57.8428 -79.6440 123.6220 -7.8188 180.0000 60.6875 63.1921 68.9021 -175.2907 97.7578 -144.0511 -136.8627 169.4066
State:	 -0.925  16.809  33.334  -0.332  0.903  0.274 -134.330    162.42  136.06 -117.20    3.46  137.64   90.66  -26.16    3.26 -179.10  120.19  169.53 -123.66  112.06   20.67 -139.42 -121.93   57.84  -79.64  123.62   -7.82  180.00   60.69   63.19   68.90 -175.29   97.76 -144.05 -136.86  169.41

DOCKED: MODEL        7
DOCKED: USER    Run = 7
DOCKED: USER    DPF = dock.dpf
DOCKED: USER  
DOCKED: USER    Estimated Free Energy of Binding    =   -5.03 kcal/mol  [=(1)+(2)+(3)-(4)]
DOCKED: USER    Estimated Inhibition Constant, Ki   =  206.47 uM (micromolar)  [Temperature = 298.15 K]
DOCKED: USER    
DOCKED: USER    (1) Final Intermolecular Energy     =  -13.68 kcal/mol
DOCKED: USER        vdW + Hbond + desolv Energy     =  -12.68 kcal/mol
DOCKED: USER        Electrostatic Energy            =   -1.00 kcal/mol
DOCKED: USER    (2) Final Total Internal Energy     =   -5.77 kcal/mol
DOCKED: USER    (3) Torsional Free Energy           =   +8.65 kcal/mol
DOCKED: USER    (4) Unbound System's Energy  [=(2)] =   -5.77 kcal/mol
DOCKED: USER    
DOCKED: USER    
DOCKED: USER    NEWDPF move lig1bai.pdbqt
DOCKED: USER    NEWDPF about -1.190000 15.842000 33.892000
DOCKED: USER    NEWDPF tran0 -0.924516 16.808753 33.333739
DOCKED: USER    NEWDPF quaternion0 -0.306177 0.831808 0.252484 -0.388077
DOCKED: USER    NEWDPF axisangle0 -0.332214 0.902542 0.273955 -134.330253
DOCKED: USER    NEWDPF quat0 -0.332214 0.902542 0.273955 -134.330253
DOCKED: USER    NEWDPF dihe0 162.42 136.06 -117.20 3.46 137.64 90.66 -26.16 3.26 -179.10 120.19 169.53 -123.66 112.06 20.67 -139.42 -121.93 57.84 -79.64 123.62 -7.82 180.00 60.69 63.19 68.90 -175.29 97.76 -144.05 -136.86 169.41 
DOCKED: USER  keepresnum = 1 
DOCKED: USER  
DOCKED: REMARK  29 active torsions:
DOCKED: REMARK  status: ('A' for Active; 'I' for Inactive)
DOCKED: REMARK    1  A    between atoms: N_1  and  CA_2 
DOCKED: REMARK    2  A    between atoms: CA_2  and  C_9 
DOCKED: REMARK    3  A    between atoms: CA_2  and  CB_11 
DOCKED: REMARK    4  A    between atoms: CA1_3  and  CB1_12 
DOCKED: REMARK    5  A    between atoms: CA1_3  and  C1_42 
DOCKED: REMARK    6  A    between atoms: CA1_3  and  N1_43 
DOCKED: REMARK    7  A    between atoms: CA2_4  and  CB2_13 
DOCKED: REMARK    8  A    between atoms: CA2_4  and  C2_45 
DOCKED: REMARK    9  A    between atoms: CA2_4  and  N2_46 
DOCKED: REMARK   10  A    between atoms: CA3_5  and  CB3_14 
DOCKED: REMARK   11  A    between atoms: CA3_5  and  C3_48 
DOCKED: REMARK   12  A    between atoms: CA3_5  and  N3_49 
DOCKED: REMARK   13  A    between atoms: CA4_6  and  CB4_15 
DOCKED: REMARK   14  A    between atoms: CA4_6  and  C4_51 
DOCKED: REMARK   15  A    between atoms: CA4_6  and  N4_52 
DOCKED: REMARK   16  A    between atoms: CA5_7  and  C5_54 
DOCKED: REMARK   17  A    between atoms: CA5_7  and  N5_55 
DOCKED: REMARK   18  A    between atoms: CA6_8  and  CB6_17 
DOCKED: REMARK   19  A    between atoms: CA6_8  and  C6_57 
DOCKED: REMARK   20  A    between atoms: CA6_8  and  N6_58 
DOCKED: REMARK       I    between atoms: C_9  and  N1_43 
DOCKED: REMARK   21  A    between atoms: CB_11  and  CG_18 
DOCKED: REMARK   22  A    between atoms: CB2_13  and  CG3_21 
DOCKED: REMARK   23  A    between atoms: CB3_14  and  CG4_22 
DOCKED: REMARK   24  A    between atoms: CB4_15  and  CG5_23 
DOCKED: REMARK   25  A    between atoms: CB6_17  and  CG6_24 
DOCKED: REMARK   26  A    between atoms: CG_18  and  CD_25 
DOCKED: REMARK   27  A    between atoms: CG5_23  and  CD3_30 
DOCKED: REMARK   28  A    between atoms: CG6_24  and  CD4_31 
DOCKED: REMARK   29  A    between atoms: CD_25  and  NE_35 
DOCKED: REMARK       I    between atoms: NE_35  and  CZ_38 
DOCKED: REMARK       I    between atoms: CZ_38  and  NH1_40 
DOCKED: REMARK       I    between atoms: C1_42  and  N2_46 
DOCKED: REMARK       I    between atoms: C3_48  and  N4_52 
DOCKED: REMARK       I    between atoms: C4_51  and  N5_55 
DOCKED: REMARK       I    between atoms: C5_54  and  N6_58 
DOCKED: REMARK       I    between atoms: C6_57  and  N7_59 
DOCKED: USER                              x       y       z     vdW  Elec       q    Type
DOCKED: USER                           _______ _______ _______ _____ _____    ______ ____
DOCKED: ROOT
DOCKED: ATOM      1  CA3 0Q4 A 125      -2.845  16.981  34.686 -0.29 -0.16    +0.177 C 
DOCKED: ENDROOT
DOCKED: BRANCH   1   2
DOCKED: ATOM      2  CB3 0Q4 A 125      -3.718  15.816  35.241 +0.16 -0.05    +0.073 C 
DOCKED: BRANCH   2   3
DOCKED: ATOM      3  CG4 0Q4 A 125      -5.129  16.160  35.514 -0.35 +0.04    -0.056 A 
DOCKED: ATOM      4  CD1 0Q4 A 125      -6.096  15.167  35.602 -0.43 -0.00    +0.007 A 
DOCKED: ATOM      5  CE1 0Q4 A 125      -7.440  15.483  35.907 -0.41 -0.00    +0.001 A 
DOCKED: ATOM      6  CZ1 0Q4 A 125      -7.820  16.813  36.118 -0.22 -0.00    +0.000 A 
DOCKED: ATOM      7  CE2 0Q4 A 125      -6.861  17.820  36.023 -0.38 -0.00    +0.001 A 
DOCKED: ATOM      8  CD2 0Q4 A 125      -5.507  17.483  35.718 -0.44 -0.01    +0.007 A 
DOCKED: ENDBRANCH   2   3
DOCKED: ENDBRANCH   1   2
DOCKED: BRANCH   1   9
DOCKED: ATOM      9  C3  0Q4 A 125      -1.351  16.985  35.114 -0.22 -0.25    +0.241 C 
DOCKED: ATOM     10  O2  0Q4 A 125      -1.041  17.230  36.283 -0.27 +0.29    -0.271 OA
DOCKED: ATOM     11  N4  0Q4 A 125      -0.462  16.603  34.196 -0.08 +0.32    -0.346 N 
DOCKED: ATOM     12  H4  0Q4 A 125      -0.755  16.424  33.276 +0.10 -0.14    +0.163 HD
DOCKED: BRANCH  11  13
DOCKED: ATOM     13  CA4 0Q4 A 125       0.971  16.481  34.474 -0.23 -0.14    +0.177 C 
DOCKED: BRANCH  13  14
DOCKED: ATOM     14  CB4 0Q4 A 125       1.599  17.901  34.557 -0.34 -0.06    +0.045 C 
DOCKED: BRANCH  14  15
DOCKED: ATOM     15  CG5 0Q4 A 125       1.421  18.812  33.358 -0.34 -0.22    +0.116 C 
DOCKED: BRANCH  15  16
DOCKED: ATOM     16  CD3 0Q4 A 125       0.556  18.191  32.251 -0.27 -0.31    +0.172 C 
DOCKED: ATOM     17  OE1 0Q4 A 125      -0.674  18.381  32.277 -0.05 +1.20    -0.648 OA
DOCKED: ATOM     18  OE2 0Q4 A 125       1.092  17.508  31.339 -0.00 +0.90    -0.648 OA
DOCKED: ENDBRANCH  15  16
DOCKED: ENDBRANCH  14  15
DOCKED: ENDBRANCH  13  14
DOCKED: BRANCH  13  19
DOCKED: ATOM     19  C4  0Q4 A 125       1.340  15.683  35.729 -0.24 -0.11    +0.241 C 
DOCKED: ATOM     20  O3  0Q4 A 125       0.507  15.014  36.345 -0.65 +0.07    -0.271 OA
DOCKED: ATOM     21  N5  0Q4 A 125       2.561  15.886  36.194 -0.09 +0.16    -0.346 N 
DOCKED: ATOM     22  H5  0Q4 A 125       3.167  16.515  35.743 +0.09 -0.09    +0.163 HD
DOCKED: BRANCH  21  23
DOCKED: ATOM     23  CA5 0Q4 A 125       3.035  15.188  37.369 -0.29 -0.05    +0.172 C 
DOCKED: ATOM     24  CB5 0Q4 A 125       3.554  13.828  36.942 -0.07 -0.01    +0.042 C 
DOCKED: BRANCH  23  25
DOCKED: ATOM     25  C5  0Q4 A 125       4.115  15.904  38.218 -0.20 -0.05    +0.240 C 
DOCKED: ATOM     26  O4  0Q4 A 125       3.820  16.649  39.155 -0.24 +0.05    -0.271 OA
DOCKED: ATOM     27  N6  0Q4 A 125       5.364  15.694  37.817 -0.05 +0.06    -0.346 N 
DOCKED: ATOM     28  H6  0Q4 A 125       5.505  15.122  37.043 +0.08 -0.04    +0.163 HD
DOCKED: BRANCH  27  29
DOCKED: ATOM     29  CA6 0Q4 A 125       6.530  16.331  38.414 -0.17 +0.02    +0.176 C 
DOCKED: BRANCH  29  30
DOCKED: ATOM     30  CB6 0Q4 A 125       6.395  16.273  39.958 -0.25 +0.00    +0.035 C 
DOCKED: BRANCH  30  31
DOCKED: ATOM     31  CG6 0Q4 A 125       7.573  15.628  40.768 -0.19 +0.00    +0.002 C 
DOCKED: BRANCH  31  32
DOCKED: ATOM     32  CD4 0Q4 A 125       7.737  16.176  42.241 -0.16 +0.00    -0.004 C 
DOCKED: ATOM     33  CE  0Q4 A 125       7.344  17.636  42.324 -0.19 +0.00    +0.005 C 
DOCKED: ENDBRANCH  31  32
DOCKED: ENDBRANCH  30  31
DOCKED: ENDBRANCH  29  30
DOCKED: BRANCH  29  34
DOCKED: ATOM     34  C6  0Q4 A 125       7.746  15.505  37.962 -0.09 +0.02    +0.238 C 
DOCKED: ATOM     35  O5  0Q4 A 125       7.846  14.285  38.285 -0.05 +0.02    -0.271 OA
DOCKED: ATOM     36  N7  0Q4 A 125       8.621  16.117  37.301 -0.02 -0.09    -0.368 N 
DOCKED: ATOM     37  H72 0Q4 A 125       8.540  17.100  37.041 +0.04 +0.08    +0.159 HD
DOCKED: ATOM     38  H71 0Q4 A 125       9.427  15.569  37.001 +0.04 +0.01    +0.159 HD
DOCKED: ENDBRANCH  29  34
DOCKED: ENDBRANCH  27  29
DOCKED: ENDBRANCH  23  25
DOCKED: ENDBRANCH  21  23
DOCKED: ENDBRANCH  13  19
DOCKED: ENDBRANCH  11  13
DOCKED: ENDBRANCH   1   9
DOCKED: BRANCH   1  39
DOCKED: ATOM     39  N3  0Q4 A 125      -2.831  16.852  33.224 -0.08 +0.37    -0.387 N 
DOCKED: ATOM     40  C2  0Q4 A 125      -3.041  15.712  32.590 -0.30 -0.06    +0.081 C 
DOCKED: ATOM     41  H3  0Q4 A 125      -2.676  17.654  32.689 +0.03 -0.20    +0.159 HD
DOCKED: BRANCH  40  42
DOCKED: ATOM     42  CA2 0Q4 A 125      -3.031  15.792  31.069 -0.26 -0.08    +0.123 C 
DOCKED: BRANCH  42  43
DOCKED: ATOM     43  CB2 0Q4 A 125      -2.044  16.863  30.547 -0.31 -0.03    +0.034 C 
DOCKED: BRANCH  43  44
DOCKED: ATOM     44  CG3 0Q4 A 125      -2.127  17.155  29.022 -0.38 +0.01    -0.020 C 
DOCKED: ATOM     45  CD1 0Q4 A 125      -1.102  18.186  28.552 -0.38 -0.01    +0.009 C 
DOCKED: ATOM     46  CD2 0Q4 A 125      -1.957  15.867  28.237 -0.43 -0.00    +0.009 C 
DOCKED: ENDBRANCH  43  44
DOCKED: ENDBRANCH  42  43
DOCKED: BRANCH  42  47
DOCKED: ATOM     47  N2  0Q4 A 125      -4.319  15.960  30.422 -0.06 +0.24    -0.350 N 
DOCKED: ATOM     48  C1  0Q4 A 125      -5.424  16.106  31.131 -0.15 -0.19    +0.241 C 
DOCKED: ATOM     49  O1  0Q4 A 125      -5.381  16.264  32.344 -0.16 +0.24    -0.271 OA
DOCKED: ATOM     50  HN2 0Q4 A 125      -4.369  15.924  29.440 +0.09 -0.09    +0.163 HD
DOCKED: BRANCH  48  51
DOCKED: ATOM     51  CA1 0Q4 A 125      -6.745  16.202  30.323 -0.14 -0.15    +0.180 C 
DOCKED: BRANCH  51  52
DOCKED: ATOM     52  CB1 0Q4 A 125      -6.823  17.479  29.338 -0.22 -0.01    +0.009 C 
DOCKED: ATOM     53  CG1 0Q4 A 125      -8.204  17.617  28.694 -0.18 -0.01    +0.012 C 
DOCKED: ATOM     54  CG2 0Q4 A 125      -6.534  18.782  30.111 -0.33 -0.01    +0.012 C 
DOCKED: ENDBRANCH  51  52
DOCKED: BRANCH  51  55
DOCKED: ATOM     55  N1  0Q4 A 125      -7.924  16.160  31.190 -0.07 +0.37    -0.346 N 
DOCKED: ATOM     56  C   0Q4 A 125      -8.258  15.088  31.926 -0.23 -0.22    +0.249 C 
DOCKED: ATOM     57  O   0Q4 A 125      -7.597  14.032  31.919 -0.35 +0.21    -0.271 OA
DOCKED: ATOM     58  H1  0Q4 A 125      -8.451  16.986  31.222 +0.03 -0.26    +0.163 HD
DOCKED: BRANCH  56  59
DOCKED: ATOM     59  CA  0Q4 A 125      -9.582  15.184  32.750 -0.20 -0.30    +0.274 C 
DOCKED: BRANCH  59  60
DOCKED: ATOM     60  N   0Q4 A 125      -9.560  16.440  33.560 -0.09 +0.13    -0.067 N 
DOCKED: ATOM     61  H   0Q4 A 125     -10.384  17.025  33.368 -0.23 -0.65    +0.275 HD
DOCKED: ATOM     62  H2  0Q4 A 125      -9.546  16.129  34.564 -0.40 -0.72    +0.275 HD
DOCKED: ATOM     63  HN3 0Q4 A 125      -8.709  16.987  33.352 +0.09 -0.44    +0.275 HD
DOCKED: ENDBRANCH  59  60
DOCKED: BRANCH  59  64
DOCKED: ATOM     64  CB  0Q4 A 125     -10.837  15.180  31.867 -0.20 -0.04    +0.044 C 
DOCKED: BRANCH  64  65
DOCKED: ATOM     65  CG  0Q4 A 125     -10.622  15.399  30.330 -0.15 -0.02    +0.023 C 
DOCKED: BRANCH  65  66
DOCKED: ATOM     66  CD  0Q4 A 125     -11.724  14.796  29.388 -0.08 -0.08    +0.138 C 
DOCKED: BRANCH  66  67
DOCKED: ATOM     67  NE  0Q4 A 125     -12.498  13.692  29.972 -0.08 +0.10    -0.227 N 
DOCKED: ATOM     68  CZ  0Q4 A 125     -13.608  13.843  30.699 +0.01 -0.32    +0.665 C 
DOCKED: ATOM     69  NH1 0Q4 A 125     -14.082  15.059  30.916 -0.01 +0.12    -0.235 N 
DOCKED: ATOM     70  NH2 0Q4 A 125     -14.175  12.794  31.313 +0.08 +0.15    -0.235 N 
DOCKED: ATOM     71 HH11 0Q4 A 125     -13.615  15.855  30.534 +0.03 -0.11    +0.174 HD
DOCKED: ATOM     72 HH12 0Q4 A 125     -14.913  15.183  31.460 +0.03 -0.09    +0.174 HD
DOCKED: ATOM     73 HH21 0Q4 A 125     -13.775  11.883  31.232 -0.43 -0.12    +0.174 HD
DOCKED: ATOM     74 HH22 0Q4 A 125     -15.006  12.932  31.855 -0.44 -0.12    +0.174 HD
DOCKED: ATOM     75  HE  0Q4 A 125     -12.185  12.772  29.825 +0.02 -0.04    +0.177 HD
DOCKED: ENDBRANCH  66  67
DOCKED: ENDBRANCH  65  66
DOCKED: ENDBRANCH  64  65
DOCKED: ENDBRANCH  59  64
DOCKED: ENDBRANCH  56  59
DOCKED: ENDBRANCH  51  55
DOCKED: ENDBRANCH  48  51
DOCKED: ENDBRANCH  42  47
DOCKED: ENDBRANCH  40  42
DOCKED: ENDBRANCH   1  39
DOCKED: TORSDOF 29
DOCKED: TER
DOCKED: ENDMDL
________________________________________________________________________________


	BEGINNING GENETIC ALGORITHM DOCKING 8 of 10
Run: 8 Seed: 1170205835 591871375 [ Run 8 of 10 GA/GALS ]
Beginning LAMARCKIAN GENETIC ALGORITHM (LGA), with a maximum of 2500000 energy evaluations.

Final-Value: -21.687


	FINAL GENETIC ALGORITHM DOCKED STATE
	_______________________________________________


Detailed state:  trans 0.231 16.235 34.327 quatxyzw 0.326391 0.247509 -0.868135 -0.280268 center -1.190 15.842 33.892 ntor 29 -98.0056 74.9261 153.0372 -52.6364 103.2699 -180.0000 -110.2453 52.2062 -179.8069 -156.4885 60.1429 21.7417 65.8385 169.1276 -90.9163 178.3893 -166.9741 89.1563 -179.2172 15.3640 170.2790 153.1985 -45.3645 -132.0999 137.6368 75.5960 -130.9404 58.2931 171.7212
State:	  0.231  16.235  34.327   0.340  0.258 -0.904 -147.448    -98.01   74.93  153.04  -52.64  103.27 -180.00 -110.25   52.21 -179.81 -156.49   60.14   21.74   65.84  169.13  -90.92  178.39 -166.97   89.16 -179.22   15.36  170.28  153.20  -45.36 -132.10  137.64   75.60 -130.94   58.29  171.72

DOCKED: MODEL        8
DOCKED: USER    Run = 8
DOCKED: USER    DPF = dock.dpf
DOCKED: USER  
DOCKED: USER    Estimated Free Energy of Binding    =   -6.25 kcal/mol  [=(1)+(2)+(3)-(4)]
DOCKED: USER    Estimated Inhibition Constant, Ki   =   26.42 uM (micromolar)  [Temperature = 298.15 K]
DOCKED: USER    
DOCKED: USER    (1) Final Intermolecular Energy     =  -14.90 kcal/mol
DOCKED: USER        vdW + Hbond + desolv Energy     =  -13.14 kcal/mol
DOCKED: USER        Electrostatic Energy            =   -1.75 kcal/mol
DOCKED: USER    (2) Final Total Internal Energy     =   -6.79 kcal/mol
DOCKED: USER    (3) Torsional Free Energy           =   +8.65 kcal/mol
DOCKED: USER    (4) Unbound System's Energy  [=(2)] =   -6.79 kcal/mol
DOCKED: USER    
DOCKED: USER    
DOCKED: USER    NEWDPF move lig1bai.pdbqt
DOCKED: USER    NEWDPF about -1.190000 15.842000 33.892000
DOCKED: USER    NEWDPF tran0 0.230990 16.234675 34.326520
DOCKED: USER    NEWDPF quaternion0 0.326391 0.247509 -0.868135 -0.280268
DOCKED: USER    NEWDPF axisangle0 0.340019 0.257843 -0.904381 -147.447568
DOCKED: USER    NEWDPF quat0 0.340019 0.257843 -0.904381 -147.447568
DOCKED: USER    NEWDPF dihe0 -98.01 74.93 153.04 -52.64 103.27 -180.00 -110.25 52.21 -179.81 -156.49 60.14 21.74 65.84 169.13 -90.92 178.39 -166.97 89.16 -179.22 15.36 170.28 153.20 -45.36 -132.10 137.64 75.60 -130.94 58.29 171.72 
DOCKED: USER  keepresnum = 1 
DOCKED: USER  
DOCKED: REMARK  29 active torsions:
DOCKED: REMARK  status: ('A' for Active; 'I' for Inactive)
DOCKED: REMARK    1  A    between atoms: N_1  and  CA_2 
DOCKED: REMARK    2  A    between atoms: CA_2  and  C_9 
DOCKED: REMARK    3  A    between atoms: CA_2  and  CB_11 
DOCKED: REMARK    4  A    between atoms: CA1_3  and  CB1_12 
DOCKED: REMARK    5  A    between atoms: CA1_3  and  C1_42 
DOCKED: REMARK    6  A    between atoms: CA1_3  and  N1_43 
DOCKED: REMARK    7  A    between atoms: CA2_4  and  CB2_13 
DOCKED: REMARK    8  A    between atoms: CA2_4  and  C2_45 
DOCKED: REMARK    9  A    between atoms: CA2_4  and  N2_46 
DOCKED: REMARK   10  A    between atoms: CA3_5  and  CB3_14 
DOCKED: REMARK   11  A    between atoms: CA3_5  and  C3_48 
DOCKED: REMARK   12  A    between atoms: CA3_5  and  N3_49 
DOCKED: REMARK   13  A    between atoms: CA4_6  and  CB4_15 
DOCKED: REMARK   14  A    between atoms: CA4_6  and  C4_51 
DOCKED: REMARK   15  A    between atoms: CA4_6  and  N4_52 
DOCKED: REMARK   16  A    between atoms: CA5_7  and  C5_54 
DOCKED: REMARK   17  A    between atoms: CA5_7  and  N5_55 
DOCKED: REMARK   18  A    between atoms: CA6_8  and  CB6_17 
DOCKED: REMARK   19  A    between atoms: CA6_8  and  C6_57 
DOCKED: REMARK   20  A    between atoms: CA6_8  and  N6_58 
DOCKED: REMARK       I    between atoms: C_9  and  N1_43 
DOCKED: REMARK   21  A    between atoms: CB_11  and  CG_18 
DOCKED: REMARK   22  A    between atoms: CB2_13  and  CG3_21 
DOCKED: REMARK   23  A    between atoms: CB3_14  and  CG4_22 
DOCKED: REMARK   24  A    between atoms: CB4_15  and  CG5_23 
DOCKED: REMARK   25  A    between atoms: CB6_17  and  CG6_24 
DOCKED: REMARK   26  A    between atoms: CG_18  and  CD_25 
DOCKED: REMARK   27  A    between atoms: CG5_23  and  CD3_30 
DOCKED: REMARK   28  A    between atoms: CG6_24  and  CD4_31 
DOCKED: REMARK   29  A    between atoms: CD_25  and  NE_35 
DOCKED: REMARK       I    between atoms: NE_35  and  CZ_38 
DOCKED: REMARK       I    between atoms: CZ_38  and  NH1_40 
DOCKED: REMARK       I    between atoms: C1_42  and  N2_46 
DOCKED: REMARK       I    between atoms: C3_48  and  N4_52 
DOCKED: REMARK       I    between atoms: C4_51  and  N5_55 
DOCKED: REMARK       I    between atoms: C5_54  and  N6_58 
DOCKED: REMARK       I    between atoms: C6_57  and  N7_59 
DOCKED: USER                              x       y       z     vdW  Elec       q    Type
DOCKED: USER                           _______ _______ _______ _____ _____    ______ ____
DOCKED: ROOT
DOCKED: ATOM      1  CA3 0Q4 A 125       2.128  16.028  32.947 -0.24 -0.12    +0.177 C 
DOCKED: ENDROOT
DOCKED: BRANCH   1   2
DOCKED: ATOM      2  CB3 0Q4 A 125       2.491  16.893  31.703 -0.33 -0.07    +0.073 C 
DOCKED: BRANCH   2   3
DOCKED: ATOM      3  CG4 0Q4 A 125       3.913  16.856  31.302 -0.29 +0.04    -0.056 A 
DOCKED: ATOM      4  CD1 0Q4 A 125       4.914  17.170  32.212 -0.30 -0.00    +0.007 A 
DOCKED: ATOM      5  CE1 0Q4 A 125       6.279  17.093  31.850 -0.37 -0.00    +0.001 A 
DOCKED: ATOM      6  CZ1 0Q4 A 125       6.644  16.704  30.556 -0.48 -0.00    +0.000 A 
DOCKED: ATOM      7  CE2 0Q4 A 125       5.648  16.397  29.631 -0.45 -0.00    +0.001 A 
DOCKED: ATOM      8  CD2 0Q4 A 125       4.275  16.476  30.014 -0.39 -0.00    +0.007 A 
DOCKED: ENDBRANCH   2   3
DOCKED: ENDBRANCH   1   2
DOCKED: BRANCH   1   9
DOCKED: ATOM      9  C3  0Q4 A 125       1.985  16.788  34.295 -0.19 -0.20    +0.241 C 
DOCKED: ATOM     10  O2  0Q4 A 125       2.918  17.471  34.724 -0.17 +0.25    -0.271 OA
DOCKED: ATOM     11  N4  0Q4 A 125       0.787  16.752  34.880 -0.09 +0.32    -0.346 N 
DOCKED: ATOM     12  H4  0Q4 A 125       0.076  16.189  34.504 +0.09 -0.12    +0.163 HD
DOCKED: BRANCH  11  13
DOCKED: ATOM     13  CA4 0Q4 A 125       0.478  17.482  36.112 -0.23 -0.22    +0.177 C 
DOCKED: BRANCH  13  14
DOCKED: ATOM     14  CB4 0Q4 A 125       0.007  16.475  37.199 -0.45 -0.03    +0.045 C 
DOCKED: BRANCH  14  15
DOCKED: ATOM     15  CG5 0Q4 A 125       0.517  15.051  37.096 -0.26 -0.03    +0.116 C 
DOCKED: BRANCH  15  16
DOCKED: ATOM     16  CD3 0Q4 A 125       1.800  14.810  37.906 -0.20 -0.04    +0.172 C 
DOCKED: ATOM     17  OE1 0Q4 A 125       1.998  15.492  38.928 -0.05 +0.15    -0.648 OA
DOCKED: ATOM     18  OE2 0Q4 A 125       2.625  13.933  37.536 +0.14 +0.09    -0.648 OA
DOCKED: ENDBRANCH  15  16
DOCKED: ENDBRANCH  14  15
DOCKED: ENDBRANCH  13  14
DOCKED: BRANCH  13  19
DOCKED: ATOM     19  C4  0Q4 A 125       1.609  18.351  36.671 -0.21 -0.29    +0.241 C 
DOCKED: ATOM     20  O3  0Q4 A 125       1.615  19.578  36.543 +0.23 +0.50    -0.271 OA
DOCKED: ATOM     21  N5  0Q4 A 125       2.646  17.690  37.156 -0.11 +0.23    -0.346 N 
DOCKED: ATOM     22  H5  0Q4 A 125       2.662  16.708  37.142 +0.10 -0.08    +0.163 HD
DOCKED: BRANCH  21  23
DOCKED: ATOM     23  CA5 0Q4 A 125       3.778  18.394  37.720 -0.14 -0.07    +0.172 C 
DOCKED: ATOM     24  CB5 0Q4 A 125       3.747  18.221  39.227 -0.22 -0.01    +0.042 C 
DOCKED: BRANCH  23  25
DOCKED: ATOM     25  C5  0Q4 A 125       5.180  18.000  37.189 -0.20 -0.05    +0.240 C 
DOCKED: ATOM     26  O4  0Q4 A 125       6.099  18.817  37.108 -0.25 -0.02    -0.271 OA
DOCKED: ATOM     27  N6  0Q4 A 125       5.284  16.740  36.782 -0.04 +0.09    -0.346 N 
DOCKED: ATOM     28  H6  0Q4 A 125       4.497  16.173  36.845 +0.08 -0.05    +0.163 HD
DOCKED: BRANCH  27  29
DOCKED: ATOM     29  CA6 0Q4 A 125       6.481  16.177  36.171 -0.12 -0.04    +0.176 C 
DOCKED: BRANCH  29  30
DOCKED: ATOM     30  CB6 0Q4 A 125       7.346  15.523  37.279 -0.16 -0.00    +0.035 C 
DOCKED: BRANCH  30  31
DOCKED: ATOM     31  CG6 0Q4 A 125       6.604  14.699  38.389 -0.19 -0.00    +0.002 C 
DOCKED: BRANCH  31  32
DOCKED: ATOM     32  CD4 0Q4 A 125       5.821  13.434  37.858 -0.30 +0.00    -0.004 C 
DOCKED: ATOM     33  CE  0Q4 A 125       6.778  12.389  37.322 -0.05 -0.00    +0.005 C 
DOCKED: ENDBRANCH  31  32
DOCKED: ENDBRANCH  30  31
DOCKED: ENDBRANCH  29  30
DOCKED: BRANCH  29  34
DOCKED: ATOM     34  C6  0Q4 A 125       5.992  15.105  35.183 -0.13 -0.11    +0.238 C 
DOCKED: ATOM     35  O5  0Q4 A 125       6.817  14.324  34.624 -0.21 +0.14    -0.271 OA
DOCKED: ATOM     36  N7  0Q4 A 125       4.757  15.083  34.952 -0.03 +0.19    -0.368 N 
DOCKED: ATOM     37  H72 0Q4 A 125       4.092  15.711  35.402 +0.08 -0.07    +0.159 HD
DOCKED: ATOM     38  H71 0Q4 A 125       4.433  14.371  34.297 -0.41 -0.13    +0.159 HD
DOCKED: ENDBRANCH  29  34
DOCKED: ENDBRANCH  27  29
DOCKED: ENDBRANCH  23  25
DOCKED: ENDBRANCH  21  23
DOCKED: ENDBRANCH  13  19
DOCKED: ENDBRANCH  11  13
DOCKED: ENDBRANCH   1   9
DOCKED: BRANCH   1  39
DOCKED: ATOM     39  N3  0Q4 A 125       0.810  15.436  32.691 -0.08 +0.22    -0.387 N 
DOCKED: ATOM     40  C2  0Q4 A 125      -0.060  15.935  31.831 -0.27 -0.06    +0.081 C 
DOCKED: ATOM     41  H3  0Q4 A 125       0.568  14.619  33.167 +0.07 -0.05    +0.159 HD
DOCKED: BRANCH  40  42
DOCKED: ATOM     42  CA2 0Q4 A 125      -1.356  15.150  31.673 -0.30 -0.06    +0.123 C 
DOCKED: BRANCH  42  43
DOCKED: ATOM     43  CB2 0Q4 A 125      -1.717  14.913  30.186 -0.23 -0.02    +0.034 C 
DOCKED: BRANCH  43  44
DOCKED: ATOM     44  CG3 0Q4 A 125      -3.105  15.457  29.745 -0.35 +0.01    -0.020 C 
DOCKED: ATOM     45  CD1 0Q4 A 125      -3.026  16.390  28.537 -0.34 -0.00    +0.009 C 
DOCKED: ATOM     46  CD2 0Q4 A 125      -4.042  14.303  29.442 -0.40 -0.00    +0.009 C 
DOCKED: ENDBRANCH  43  44
DOCKED: ENDBRANCH  42  43
DOCKED: BRANCH  42  47
DOCKED: ATOM     47  N2  0Q4 A 125      -2.515  15.666  32.378 -0.12 +0.23    -0.350 N 
DOCKED: ATOM     48  C1  0Q4 A 125      -2.380  16.513  33.383 -0.19 -0.21    +0.241 C 
DOCKED: ATOM     49  O1  0Q4 A 125      -1.293  17.012  33.648 -0.17 +0.30    -0.271 OA
DOCKED: ATOM     50  HN2 0Q4 A 125      -3.409  15.346  32.125 +0.07 -0.11    +0.163 HD
DOCKED: BRANCH  48  51
DOCKED: ATOM     51  CA1 0Q4 A 125      -3.688  16.932  34.102 -0.28 -0.16    +0.180 C 
DOCKED: BRANCH  51  52
DOCKED: ATOM     52  CB1 0Q4 A 125      -4.006  16.082  35.437 -0.33 -0.01    +0.009 C 
DOCKED: ATOM     53  CG1 0Q4 A 125      -4.835  16.888  36.440 -0.26 -0.01    +0.012 C 
DOCKED: ATOM     54  CG2 0Q4 A 125      -4.798  14.804  35.095 -0.32 -0.01    +0.012 C 
DOCKED: ENDBRANCH  51  52
DOCKED: BRANCH  51  55
DOCKED: ATOM     55  N1  0Q4 A 125      -4.843  16.907  33.201 -0.12 +0.31    -0.346 N 
DOCKED: ATOM     56  C   0Q4 A 125      -6.061  17.349  33.554 -0.27 -0.22    +0.249 C 
DOCKED: ATOM     57  O   0Q4 A 125      -6.311  17.804  34.686 -0.43 +0.21    -0.271 OA
DOCKED: ATOM     58  H1  0Q4 A 125      -4.664  16.566  32.299 +0.08 -0.14    +0.163 HD
DOCKED: BRANCH  56  59
DOCKED: ATOM     59  CA  0Q4 A 125      -7.200  17.194  32.496 -0.22 -0.30    +0.274 C 
DOCKED: BRANCH  59  60
DOCKED: ATOM     60  N   0Q4 A 125      -6.841  17.982  31.277 -0.31 +0.09    -0.067 N 
DOCKED: ATOM     61  H   0Q4 A 125      -6.835  17.390  30.435 +0.13 -0.29    +0.275 HD
DOCKED: ATOM     62  H2  0Q4 A 125      -7.572  18.734  31.201 +0.17 -0.58    +0.275 HD
DOCKED: ATOM     63  HN3 0Q4 A 125      -5.908  18.411  31.388 -0.26 -0.35    +0.275 HD
DOCKED: ENDBRANCH  59  60
DOCKED: BRANCH  59  64
DOCKED: ATOM     64  CB  0Q4 A 125      -7.447  15.735  32.093 -0.29 -0.04    +0.044 C 
DOCKED: BRANCH  64  65
DOCKED: ATOM     65  CG  0Q4 A 125      -8.868  15.385  31.532 -0.27 -0.02    +0.023 C 
DOCKED: BRANCH  65  66
DOCKED: ATOM     66  CD  0Q4 A 125     -10.044  15.409  32.571 -0.23 -0.16    +0.138 C 
DOCKED: BRANCH  66  67
DOCKED: ATOM     67  NE  0Q4 A 125     -10.186  14.184  33.370 -0.23 +0.19    -0.227 N 
DOCKED: ATOM     68  CZ  0Q4 A 125     -11.299  13.449  33.442 -0.04 -0.46    +0.665 C 
DOCKED: ATOM     69  NH1 0Q4 A 125     -12.363  13.811  32.745 -0.11 +0.16    -0.235 N 
DOCKED: ATOM     70  NH2 0Q4 A 125     -11.390  12.425  34.303 -0.17 +0.16    -0.235 N 
DOCKED: ATOM     71 HH11 0Q4 A 125     -12.331  14.624  32.167 +0.06 -0.13    +0.174 HD
DOCKED: ATOM     72 HH12 0Q4 A 125     -13.202  13.266  32.792 +0.02 -0.11    +0.174 HD
DOCKED: ATOM     73 HH21 0Q4 A 125     -10.625  12.196  34.902 -0.35 -0.11    +0.174 HD
DOCKED: ATOM     74 HH22 0Q4 A 125     -12.236  11.889  34.341 -0.35 -0.13    +0.174 HD
DOCKED: ATOM     75  HE  0Q4 A 125      -9.414  13.875  33.894 +0.08 -0.12    +0.177 HD
DOCKED: ENDBRANCH  66  67
DOCKED: ENDBRANCH  65  66
DOCKED: ENDBRANCH  64  65
DOCKED: ENDBRANCH  59  64
DOCKED: ENDBRANCH  56  59
DOCKED: ENDBRANCH  51  55
DOCKED: ENDBRANCH  48  51
DOCKED: ENDBRANCH  42  47
DOCKED: ENDBRANCH  40  42
DOCKED: ENDBRANCH   1  39
DOCKED: TORSDOF 29
DOCKED: TER
DOCKED: ENDMDL
________________________________________________________________________________


	BEGINNING GENETIC ALGORITHM DOCKING 9 of 10
Run: 9 Seed: 1379571354 295245333 [ Run 9 of 10 GA/GALS ]
Beginning LAMARCKIAN GENETIC ALGORITHM (LGA), with a maximum of 2500000 energy evaluations.

Final-Value: -8.801


	FINAL GENETIC ALGORITHM DOCKED STATE
	_______________________________________________


Detailed state:  trans 5.551 15.077 34.088 quatxyzw -0.210897 0.161764 0.149749 0.952329 center -1.190 15.842 33.892 ntor 29 -178.0964 -57.2170 -4.1937 -76.1770 -179.9944 -130.3355 -113.4127 99.6425 -160.4484 -59.8610 -64.0397 179.1654 -39.9999 176.9045 -68.0904 -178.1891 60.6480 -24.0127 -179.9437 63.1361 -134.4705 28.5944 178.7658 -57.7724 -107.3532 -97.2070 91.8717 178.7206 -84.9360
State:	  5.551  15.077  34.088  -0.691  0.530  0.491 35.525   -178.10  -57.22   -4.19  -76.18 -179.99 -130.34 -113.41   99.64 -160.45  -59.86  -64.04  179.17  -40.00  176.90  -68.09 -178.19   60.65  -24.01 -179.94   63.14 -134.47   28.59  178.77  -57.77 -107.35  -97.21   91.87  178.72  -84.94

DOCKED: MODEL        9
DOCKED: USER    Run = 9
DOCKED: USER    DPF = dock.dpf
DOCKED: USER  
DOCKED: USER    Estimated Free Energy of Binding    =   +2.33 kcal/mol  [=(1)+(2)+(3)-(4)]
DOCKED: USER    
DOCKED: USER    (1) Final Intermolecular Energy     =   -6.32 kcal/mol
DOCKED: USER        vdW + Hbond + desolv Energy     =   -7.23 kcal/mol
DOCKED: USER        Electrostatic Energy            =   +0.91 kcal/mol
DOCKED: USER    (2) Final Total Internal Energy     =   -2.48 kcal/mol
DOCKED: USER    (3) Torsional Free Energy           =   +8.65 kcal/mol
DOCKED: USER    (4) Unbound System's Energy  [=(2)] =   -2.48 kcal/mol
DOCKED: USER    
DOCKED: USER    
DOCKED: USER    NEWDPF move lig1bai.pdbqt
DOCKED: USER    NEWDPF about -1.190000 15.842000 33.892000
DOCKED: USER    NEWDPF tran0 5.550966 15.076862 34.087541
DOCKED: USER    NEWDPF quaternion0 -0.210897 0.161764 0.149749 0.952329
DOCKED: USER    NEWDPF axisangle0 -0.691299 0.530246 0.490861 35.525250
DOCKED: USER    NEWDPF quat0 -0.691299 0.530246 0.490861 35.525250
DOCKED: USER    NEWDPF dihe0 -178.10 -57.22 -4.19 -76.18 -179.99 -130.34 -113.41 99.64 -160.45 -59.86 -64.04 179.17 -40.00 176.90 -68.09 -178.19 60.65 -24.01 -179.94 63.14 -134.47 28.59 178.77 -57.77 -107.35 -97.21 91.87 178.72 -84.94 
DOCKED: USER  keepresnum = 1 
DOCKED: USER  
DOCKED: REMARK  29 active torsions:
DOCKED: REMARK  status: ('A' for Active; 'I' for Inactive)
DOCKED: REMARK    1  A    between atoms: N_1  and  CA_2 
DOCKED: REMARK    2  A    between atoms: CA_2  and  C_9 
DOCKED: REMARK    3  A    between atoms: CA_2  and  CB_11 
DOCKED: REMARK    4  A    between atoms: CA1_3  and  CB1_12 
DOCKED: REMARK    5  A    between atoms: CA1_3  and  C1_42 
DOCKED: REMARK    6  A    between atoms: CA1_3  and  N1_43 
DOCKED: REMARK    7  A    between atoms: CA2_4  and  CB2_13 
DOCKED: REMARK    8  A    between atoms: CA2_4  and  C2_45 
DOCKED: REMARK    9  A    between atoms: CA2_4  and  N2_46 
DOCKED: REMARK   10  A    between atoms: CA3_5  and  CB3_14 
DOCKED: REMARK   11  A    between atoms: CA3_5  and  C3_48 
DOCKED: REMARK   12  A    between atoms: CA3_5  and  N3_49 
DOCKED: REMARK   13  A    between atoms: CA4_6  and  CB4_15 
DOCKED: REMARK   14  A    between atoms: CA4_6  and  C4_51 
DOCKED: REMARK   15  A    between atoms: CA4_6  and  N4_52 
DOCKED: REMARK   16  A    between atoms: CA5_7  and  C5_54 
DOCKED: REMARK   17  A    between atoms: CA5_7  and  N5_55 
DOCKED: REMARK   18  A    between atoms: CA6_8  and  CB6_17 
DOCKED: REMARK   19  A    between atoms: CA6_8  and  C6_57 
DOCKED: REMARK   20  A    between atoms: CA6_8  and  N6_58 
DOCKED: REMARK       I    between atoms: C_9  and  N1_43 
DOCKED: REMARK   21  A    between atoms: CB_11  and  CG_18 
DOCKED: REMARK   22  A    between atoms: CB2_13  and  CG3_21 
DOCKED: REMARK   23  A    between atoms: CB3_14  and  CG4_22 
DOCKED: REMARK   24  A    between atoms: CB4_15  and  CG5_23 
DOCKED: REMARK   25  A    between atoms: CB6_17  and  CG6_24 
DOCKED: REMARK   26  A    between atoms: CG_18  and  CD_25 
DOCKED: REMARK   27  A    between atoms: CG5_23  and  CD3_30 
DOCKED: REMARK   28  A    between atoms: CG6_24  and  CD4_31 
DOCKED: REMARK   29  A    between atoms: CD_25  and  NE_35 
DOCKED: REMARK       I    between atoms: NE_35  and  CZ_38 
DOCKED: REMARK       I    between atoms: CZ_38  and  NH1_40 
DOCKED: REMARK       I    between atoms: C1_42  and  N2_46 
DOCKED: REMARK       I    between atoms: C3_48  and  N4_52 
DOCKED: REMARK       I    between atoms: C4_51  and  N5_55 
DOCKED: REMARK       I    between atoms: C5_54  and  N6_58 
DOCKED: REMARK       I    between atoms: C6_57  and  N7_59 
DOCKED: USER                              x       y       z     vdW  Elec       q    Type
DOCKED: USER                           _______ _______ _______ _____ _____    ______ ____
DOCKED: ROOT
DOCKED: ATOM      1  CA3 0Q4 A 125       6.380  17.186  33.448 -0.24 -0.09    +0.177 C 
DOCKED: ENDROOT
DOCKED: BRANCH   1   2
DOCKED: ATOM      2  CB3 0Q4 A 125       7.255  17.520  32.203 -0.28 -0.04    +0.073 C 
DOCKED: BRANCH   2   3
DOCKED: ATOM      3  CG4 0Q4 A 125       6.698  17.086  30.905 -0.43 +0.04    -0.056 A 
DOCKED: ATOM      4  CD1 0Q4 A 125       6.092  17.998  30.053 -0.41 -0.00    +0.007 A 
DOCKED: ATOM      5  CE1 0Q4 A 125       5.597  17.599  28.789 -0.53 -0.00    +0.001 A 
DOCKED: ATOM      6  CZ1 0Q4 A 125       5.704  16.266  28.380 +0.55 -0.00    +0.000 A 
DOCKED: ATOM      7  CE2 0Q4 A 125       6.301  15.337  29.232 -0.24 -0.00    +0.001 A 
DOCKED: ATOM      8  CD2 0Q4 A 125       6.799  15.758  30.502 -0.45 -0.00    +0.007 A 
DOCKED: ENDBRANCH   2   3
DOCKED: ENDBRANCH   1   2
DOCKED: BRANCH   1   9
DOCKED: ATOM      9  C3  0Q4 A 125       4.986  16.562  33.160 -0.20 -0.15    +0.241 C 
DOCKED: ATOM     10  O2  0Q4 A 125       4.340  16.039  34.072 -0.16 +0.16    -0.271 OA
DOCKED: ATOM     11  N4  0Q4 A 125       4.498  16.724  31.930 -0.11 +0.23    -0.346 N 
DOCKED: ATOM     12  H4  0Q4 A 125       5.052  17.141  31.235 +0.11 -0.10    +0.163 HD
DOCKED: BRANCH  11  13
DOCKED: ATOM     13  CA4 0Q4 A 125       3.166  16.261  31.531 -0.26 -0.13    +0.177 C 
DOCKED: BRANCH  13  14
DOCKED: ATOM     14  CB4 0Q4 A 125       2.544  15.433  32.691 -0.24 -0.03    +0.045 C 
DOCKED: BRANCH  14  15
DOCKED: ATOM     15  CG5 0Q4 A 125       1.199  15.885  33.225 -0.28 -0.08    +0.116 C 
DOCKED: BRANCH  15  16
DOCKED: ATOM     16  CD3 0Q4 A 125       0.274  14.717  33.597 -0.30 -0.05    +0.172 C 
DOCKED: ATOM     17  OE1 0Q4 A 125      -0.655  14.420  32.823 -0.31 +0.17    -0.648 OA
DOCKED: ATOM     18  OE2 0Q4 A 125       0.463  14.077  34.666 +0.93 -0.11    -0.648 OA
DOCKED: ENDBRANCH  15  16
DOCKED: ENDBRANCH  14  15
DOCKED: ENDBRANCH  13  14
DOCKED: BRANCH  13  19
DOCKED: ATOM     19  C4  0Q4 A 125       2.185  17.353  31.095 -0.24 -0.28    +0.241 C 
DOCKED: ATOM     20  O3  0Q4 A 125       2.329  18.532  31.428 +0.46 +0.53    -0.271 OA
DOCKED: ATOM     21  N5  0Q4 A 125       1.095  16.926  30.480 -0.14 +0.36    -0.346 N 
DOCKED: ATOM     22  H5  0Q4 A 125       0.953  15.965  30.328 +0.11 -0.11    +0.163 HD
DOCKED: BRANCH  21  23
DOCKED: ATOM     23  CA5 0Q4 A 125       0.092  17.858  30.012 -0.23 -0.25    +0.172 C 
DOCKED: ATOM     24  CB5 0Q4 A 125      -0.666  17.211  28.868 -0.22 -0.03    +0.042 C 
DOCKED: BRANCH  23  25
DOCKED: ATOM     25  C5  0Q4 A 125      -0.918  18.382  31.063 -0.26 -0.41    +0.240 C 
DOCKED: ATOM     26  O4  0Q4 A 125      -1.390  19.519  31.004 -0.22 +0.62    -0.271 OA
DOCKED: ATOM     27  N6  0Q4 A 125      -1.183  17.531  32.049 -0.11 +0.44    -0.346 N 
DOCKED: ATOM     28  H6  0Q4 A 125      -0.737  16.667  32.039 +0.10 -0.15    +0.163 HD
DOCKED: BRANCH  27  29
DOCKED: ATOM     29  CA6 0Q4 A 125      -2.037  17.843  33.187 -0.29 -0.24    +0.176 C 
DOCKED: BRANCH  29  30
DOCKED: ATOM     30  CB6 0Q4 A 125      -3.277  16.913  33.151 -0.32 -0.03    +0.035 C 
DOCKED: BRANCH  30  31
DOCKED: ATOM     31  CG6 0Q4 A 125      -3.059  15.428  32.693 -0.34 -0.00    +0.002 C 
DOCKED: BRANCH  31  32
DOCKED: ATOM     32  CD4 0Q4 A 125      -3.329  15.165  31.159 -0.26 +0.00    -0.004 C 
DOCKED: ATOM     33  CE  0Q4 A 125      -4.055  16.335  30.527 -0.27 -0.00    +0.005 C 
DOCKED: ENDBRANCH  31  32
DOCKED: ENDBRANCH  30  31
DOCKED: ENDBRANCH  29  30
DOCKED: BRANCH  29  34
DOCKED: ATOM     34  C6  0Q4 A 125      -1.198  17.552  34.443 -0.23 -0.33    +0.238 C 
DOCKED: ATOM     35  O5  0Q4 A 125      -0.159  18.231  34.690 +0.39 +0.60    -0.271 OA
DOCKED: ATOM     36  N7  0Q4 A 125      -1.586  16.598  35.162 -0.06 +0.32    -0.368 N 
DOCKED: ATOM     37  H72 0Q4 A 125      -2.423  16.050  34.963 +0.11 -0.11    +0.159 HD
DOCKED: ATOM     38  H71 0Q4 A 125      -1.029  16.404  35.994 +0.10 -0.12    +0.159 HD
DOCKED: ENDBRANCH  29  34
DOCKED: ENDBRANCH  27  29
DOCKED: ENDBRANCH  23  25
DOCKED: ENDBRANCH  21  23
DOCKED: ENDBRANCH  13  19
DOCKED: ENDBRANCH  11  13
DOCKED: ENDBRANCH   1   9
DOCKED: BRANCH   1  39
DOCKED: ATOM     39  N3  0Q4 A 125       7.106  16.177  34.228 -0.03 +0.19    -0.387 N 
DOCKED: ATOM     40  C2  0Q4 A 125       8.085  16.468  35.066 -0.20 -0.03    +0.081 C 
DOCKED: ATOM     41  H3  0Q4 A 125       6.840  15.242  34.139 +0.05 -0.09    +0.159 HD
DOCKED: BRANCH  40  42
DOCKED: ATOM     42  CA2 0Q4 A 125       8.683  15.286  35.818 -0.17 -0.03    +0.123 C 
DOCKED: BRANCH  42  43
DOCKED: ATOM     43  CB2 0Q4 A 125       7.832  14.003  35.659 -0.33 -0.01    +0.034 C 
DOCKED: BRANCH  43  44
DOCKED: ATOM     44  CG3 0Q4 A 125       6.514  13.975  36.484 -0.28 +0.00    -0.020 C 
DOCKED: ATOM     45  CD1 0Q4 A 125       5.274  14.269  35.640 +0.15 -0.00    +0.009 C 
DOCKED: ATOM     46  CD2 0Q4 A 125       6.360  12.632  37.172 -0.10 -0.00    +0.009 C 
DOCKED: ENDBRANCH  43  44
DOCKED: ENDBRANCH  42  43
DOCKED: BRANCH  42  47
DOCKED: ATOM     47  N2  0Q4 A 125       8.987  15.499  37.220 -0.05 -0.03    -0.350 N 
DOCKED: ATOM     48  C1  0Q4 A 125       9.293  14.487  38.013 -0.07 +0.00    +0.241 C 
DOCKED: ATOM     49  O1  0Q4 A 125       9.486  13.365  37.561 -0.18 +0.03    -0.271 OA
DOCKED: ATOM     50  HN2 0Q4 A 125       8.924  16.408  37.590 +0.03 +0.08    +0.163 HD
DOCKED: BRANCH  48  51
DOCKED: ATOM     51  CA1 0Q4 A 125       9.524  14.836  39.506 -0.05 +0.02    +0.180 C 
DOCKED: BRANCH  51  52
DOCKED: ATOM     52  CB1 0Q4 A 125       9.662  13.548  40.470 -0.04 -0.00    +0.009 C 
DOCKED: ATOM     53  CG1 0Q4 A 125       8.764  13.662  41.704 -0.06 -0.00    +0.012 C 
DOCKED: ATOM     54  CG2 0Q4 A 125       9.266  12.261  39.719 -0.06 -0.00    +0.012 C 
DOCKED: ENDBRANCH  51  52
DOCKED: BRANCH  51  55
DOCKED: ATOM     55  N1  0Q4 A 125       8.499  15.745  40.023 -0.03 -0.13    -0.346 N 
DOCKED: ATOM     56  C   0Q4 A 125       7.181  15.527  39.878 -0.13 +0.03    +0.249 C 
DOCKED: ATOM     57  O   0Q4 A 125       6.724  14.536  39.277 -0.10 +0.02    -0.271 OA
DOCKED: ATOM     58  H1  0Q4 A 125       8.837  16.525  40.513 +0.02 +0.14    +0.163 HD
DOCKED: BRANCH  56  59
DOCKED: ATOM     59  CA  0Q4 A 125       6.220  16.626  40.433 +0.21 +0.04    +0.274 C 
DOCKED: BRANCH  59  60
DOCKED: ATOM     60  N   0Q4 A 125       7.026  17.654  41.161 -0.21 -0.03    -0.067 N 
DOCKED: ATOM     61  H   0Q4 A 125       6.649  18.600  41.014 +0.10 +0.19    +0.275 HD
DOCKED: ATOM     62  H2  0Q4 A 125       6.979  17.385  42.176 +0.09 +0.03    +0.275 HD
DOCKED: ATOM     63  HN3 0Q4 A 125       8.007  17.635  40.839 +0.05 +0.28    +0.275 HD
DOCKED: ENDBRANCH  59  60
DOCKED: BRANCH  59  64
DOCKED: ATOM     64  CB  0Q4 A 125       5.404  17.317  39.334 -0.28 +0.00    +0.044 C 
DOCKED: BRANCH  64  65
DOCKED: ATOM     65  CG  0Q4 A 125       4.799  16.398  38.217 -0.28 -0.00    +0.023 C 
DOCKED: BRANCH  65  66
DOCKED: ATOM     66  CD  0Q4 A 125       3.555  16.973  37.452 -0.25 -0.06    +0.138 C 
DOCKED: BRANCH  66  67
DOCKED: ATOM     67  NE  0Q4 A 125       2.280  16.859  38.172 -0.23 +0.10    -0.227 N 
DOCKED: ATOM     68  CZ  0Q4 A 125       1.241  16.125  37.767 -0.03 -0.29    +0.665 C 
DOCKED: ATOM     69  NH1 0Q4 A 125       1.336  15.424  36.649 -0.25 +0.09    -0.235 N 
DOCKED: ATOM     70  NH2 0Q4 A 125       0.064  16.186  38.409 -0.31 +0.10    -0.235 N 
DOCKED: ATOM     71 HH11 0Q4 A 125       2.181  15.442  36.117 +0.10 -0.07    +0.174 HD
DOCKED: ATOM     72 HH12 0Q4 A 125       0.563  14.871  36.337 +0.09 -0.04    +0.174 HD
DOCKED: ATOM     73 HH21 0Q4 A 125      -0.050  16.781  39.203 +0.17 -0.08    +0.174 HD
DOCKED: ATOM     74 HH22 0Q4 A 125      -0.702  15.628  38.086 +0.11 -0.07    +0.174 HD
DOCKED: ATOM     75  HE  0Q4 A 125       2.172  17.355  39.014 +0.11 -0.07    +0.177 HD
DOCKED: ENDBRANCH  66  67
DOCKED: ENDBRANCH  65  66
DOCKED: ENDBRANCH  64  65
DOCKED: ENDBRANCH  59  64
DOCKED: ENDBRANCH  56  59
DOCKED: ENDBRANCH  51  55
DOCKED: ENDBRANCH  48  51
DOCKED: ENDBRANCH  42  47
DOCKED: ENDBRANCH  40  42
DOCKED: ENDBRANCH   1  39
DOCKED: TORSDOF 29
DOCKED: TER
DOCKED: ENDMDL
________________________________________________________________________________


	BEGINNING GENETIC ALGORITHM DOCKING 10 of 10
Run: 10 Seed: 1339063707 789830002 [ Run 10 of 10 GA/GALS ]
Beginning LAMARCKIAN GENETIC ALGORITHM (LGA), with a maximum of 2500000 energy evaluations.

Final-Value: -19.662


	FINAL GENETIC ALGORITHM DOCKED STATE
	_______________________________________________


Detailed state:  trans -1.851 16.364 34.268 quatxyzw 0.027904 0.068932 -0.992009 0.101919 center -1.190 15.842 33.892 ntor 29 40.1271 -179.9698 138.1927 -178.4296 -135.6715 -168.8733 82.5985 -16.2433 -172.4226 -170.3005 -68.4567 152.0365 -68.1079 54.3986 -159.7497 164.7932 180.0000 172.5105 126.9344 -166.9019 -46.4021 154.7958 -8.7905 -180.0000 179.9622 -179.6567 165.3194 -154.4637 -175.0494
State:	 -1.851  16.364  34.268   0.028  0.069 -0.997 168.301     40.13 -179.97  138.19 -178.43 -135.67 -168.87   82.60  -16.24 -172.42 -170.30  -68.46  152.04  -68.11   54.40 -159.75  164.79  180.00  172.51  126.93 -166.90  -46.40  154.80   -8.79 -180.00  179.96 -179.66  165.32 -154.46 -175.05

DOCKED: MODEL       10
DOCKED: USER    Run = 10
DOCKED: USER    DPF = dock.dpf
DOCKED: USER  
DOCKED: USER    Estimated Free Energy of Binding    =   -6.34 kcal/mol  [=(1)+(2)+(3)-(4)]
DOCKED: USER    Estimated Inhibition Constant, Ki   =   22.60 uM (micromolar)  [Temperature = 298.15 K]
DOCKED: USER    
DOCKED: USER    (1) Final Intermolecular Energy     =  -14.99 kcal/mol
DOCKED: USER        vdW + Hbond + desolv Energy     =  -13.01 kcal/mol
DOCKED: USER        Electrostatic Energy            =   -1.98 kcal/mol
DOCKED: USER    (2) Final Total Internal Energy     =   -4.67 kcal/mol
DOCKED: USER    (3) Torsional Free Energy           =   +8.65 kcal/mol
DOCKED: USER    (4) Unbound System's Energy  [=(2)] =   -4.67 kcal/mol
DOCKED: USER    
DOCKED: USER    
DOCKED: USER    NEWDPF move lig1bai.pdbqt
DOCKED: USER    NEWDPF about -1.190000 15.842000 33.892000
DOCKED: USER    NEWDPF tran0 -1.850601 16.364380 34.268338
DOCKED: USER    NEWDPF quaternion0 0.027904 0.068932 -0.992009 0.101919
DOCKED: USER    NEWDPF axisangle0 0.028050 0.069293 -0.997202 168.300617
DOCKED: USER    NEWDPF quat0 0.028050 0.069293 -0.997202 168.300617
DOCKED: USER    NEWDPF dihe0 40.13 -179.97 138.19 -178.43 -135.67 -168.87 82.60 -16.24 -172.42 -170.30 -68.46 152.04 -68.11 54.40 -159.75 164.79 180.00 172.51 126.93 -166.90 -46.40 154.80 -8.79 -180.00 179.96 -179.66 165.32 -154.46 -175.05 
DOCKED: USER  keepresnum = 1 
DOCKED: USER  
DOCKED: REMARK  29 active torsions:
DOCKED: REMARK  status: ('A' for Active; 'I' for Inactive)
DOCKED: REMARK    1  A    between atoms: N_1  and  CA_2 
DOCKED: REMARK    2  A    between atoms: CA_2  and  C_9 
DOCKED: REMARK    3  A    between atoms: CA_2  and  CB_11 
DOCKED: REMARK    4  A    between atoms: CA1_3  and  CB1_12 
DOCKED: REMARK    5  A    between atoms: CA1_3  and  C1_42 
DOCKED: REMARK    6  A    between atoms: CA1_3  and  N1_43 
DOCKED: REMARK    7  A    between atoms: CA2_4  and  CB2_13 
DOCKED: REMARK    8  A    between atoms: CA2_4  and  C2_45 
DOCKED: REMARK    9  A    between atoms: CA2_4  and  N2_46 
DOCKED: REMARK   10  A    between atoms: CA3_5  and  CB3_14 
DOCKED: REMARK   11  A    between atoms: CA3_5  and  C3_48 
DOCKED: REMARK   12  A    between atoms: CA3_5  and  N3_49 
DOCKED: REMARK   13  A    between atoms: CA4_6  and  CB4_15 
DOCKED: REMARK   14  A    between atoms: CA4_6  and  C4_51 
DOCKED: REMARK   15  A    between atoms: CA4_6  and  N4_52 
DOCKED: REMARK   16  A    between atoms: CA5_7  and  C5_54 
DOCKED: REMARK   17  A    between atoms: CA5_7  and  N5_55 
DOCKED: REMARK   18  A    between atoms: CA6_8  and  CB6_17 
DOCKED: REMARK   19  A    between atoms: CA6_8  and  C6_57 
DOCKED: REMARK   20  A    between atoms: CA6_8  and  N6_58 
DOCKED: REMARK       I    between atoms: C_9  and  N1_43 
DOCKED: REMARK   21  A    between atoms: CB_11  and  CG_18 
DOCKED: REMARK   22  A    between atoms: CB2_13  and  CG3_21 
DOCKED: REMARK   23  A    between atoms: CB3_14  and  CG4_22 
DOCKED: REMARK   24  A    between atoms: CB4_15  and  CG5_23 
DOCKED: REMARK   25  A    between atoms: CB6_17  and  CG6_24 
DOCKED: REMARK   26  A    between atoms: CG_18  and  CD_25 
DOCKED: REMARK   27  A    between atoms: CG5_23  and  CD3_30 
DOCKED: REMARK   28  A    between atoms: CG6_24  and  CD4_31 
DOCKED: REMARK   29  A    between atoms: CD_25  and  NE_35 
DOCKED: REMARK       I    between atoms: NE_35  and  CZ_38 
DOCKED: REMARK       I    between atoms: CZ_38  and  NH1_40 
DOCKED: REMARK       I    between atoms: C1_42  and  N2_46 
DOCKED: REMARK       I    between atoms: C3_48  and  N4_52 
DOCKED: REMARK       I    between atoms: C4_51  and  N5_55 
DOCKED: REMARK       I    between atoms: C5_54  and  N6_58 
DOCKED: REMARK       I    between atoms: C6_57  and  N7_59 
DOCKED: USER                              x       y       z     vdW  Elec       q    Type
DOCKED: USER                           _______ _______ _______ _____ _____    ______ ____
DOCKED: ROOT
DOCKED: ATOM      1  CA3 0Q4 A 125      -1.930  14.876  32.446 -0.01 -0.08    +0.177 C 
DOCKED: ENDROOT
DOCKED: BRANCH   1   2
DOCKED: ATOM      2  CB3 0Q4 A 125      -2.168  15.228  30.947 -0.31 -0.04    +0.073 C 
DOCKED: BRANCH   2   3
DOCKED: ATOM      3  CG4 0Q4 A 125      -1.766  16.593  30.548 -0.26 +0.04    -0.056 A 
DOCKED: ATOM      4  CD1 0Q4 A 125      -0.427  16.917  30.380 -0.33 -0.01    +0.007 A 
DOCKED: ATOM      5  CE1 0Q4 A 125      -0.036  18.208  29.955 -0.05 -0.00    +0.001 A 
DOCKED: ATOM      6  CZ1 0Q4 A 125      -1.002  19.189  29.703 -0.15 -0.00    +0.000 A 
DOCKED: ATOM      7  CE2 0Q4 A 125      -2.350  18.879  29.878 -0.19 -0.00    +0.001 A 
DOCKED: ATOM      8  CD2 0Q4 A 125      -2.727  17.569  30.304 -0.26 -0.01    +0.007 A 
DOCKED: ENDBRANCH   2   3
DOCKED: ENDBRANCH   1   2
DOCKED: BRANCH   1   9
DOCKED: ATOM      9  C3  0Q4 A 125      -0.688  15.527  33.115 -0.22 -0.14    +0.241 C 
DOCKED: ATOM     10  O2  0Q4 A 125       0.202  14.818  33.593 -0.39 +0.09    -0.271 OA
DOCKED: ATOM     11  N4  0Q4 A 125      -0.592  16.854  33.040 -0.07 +0.36    -0.346 N 
DOCKED: ATOM     12  H4  0Q4 A 125      -1.329  17.377  32.656 +0.10 -0.20    +0.163 HD
DOCKED: BRANCH  11  13
DOCKED: ATOM     13  CA4 0Q4 A 125       0.558  17.603  33.555 -0.26 -0.25    +0.177 C 
DOCKED: BRANCH  13  14
DOCKED: ATOM     14  CB4 0Q4 A 125       0.420  17.755  35.096 -0.04 -0.07    +0.045 C 
DOCKED: BRANCH  14  15
DOCKED: ATOM     15  CG5 0Q4 A 125      -0.618  16.895  35.791 -0.33 -0.11    +0.116 C 
DOCKED: BRANCH  15  16
DOCKED: ATOM     16  CD3 0Q4 A 125      -0.008  15.703  36.543 -0.23 -0.08    +0.172 C 
DOCKED: ATOM     17  OE1 0Q4 A 125      -0.400  15.463  37.700 +0.05 +0.25    -0.648 OA
DOCKED: ATOM     18  OE2 0Q4 A 125       0.868  14.987  35.989 -0.40 +0.16    -0.648 OA
DOCKED: ENDBRANCH  15  16
DOCKED: ENDBRANCH  14  15
DOCKED: ENDBRANCH  13  14
DOCKED: BRANCH  13  19
DOCKED: ATOM     19  C4  0Q4 A 125       1.935  17.022  33.217 -0.21 -0.23    +0.241 C 
DOCKED: ATOM     20  O3  0Q4 A 125       2.663  17.526  32.359 -0.23 +0.29    -0.271 OA
DOCKED: ATOM     21  N5  0Q4 A 125       2.218  15.863  33.787 -0.11 +0.21    -0.346 N 
DOCKED: ATOM     22  H5  0Q4 A 125       1.567  15.428  34.381 +0.08 -0.07    +0.163 HD
DOCKED: BRANCH  21  23
DOCKED: ATOM     23  CA5 0Q4 A 125       3.489  15.212  33.555 -0.10 -0.10    +0.172 C 
DOCKED: ATOM     24  CB5 0Q4 A 125       3.471  14.608  32.164 +0.53 -0.02    +0.042 C 
DOCKED: BRANCH  23  25
DOCKED: ATOM     25  C5  0Q4 A 125       4.760  16.083  33.718 -0.17 -0.15    +0.240 C 
DOCKED: ATOM     26  O4  0Q4 A 125       5.386  16.130  34.778 -0.13 +0.14    -0.271 OA
DOCKED: ATOM     27  N6  0Q4 A 125       5.076  16.807  32.650 -0.11 +0.22    -0.346 N 
DOCKED: ATOM     28  H6  0Q4 A 125       4.503  16.739  31.866 +0.10 -0.11    +0.163 HD
DOCKED: BRANCH  27  29
DOCKED: ATOM     29  CA6 0Q4 A 125       6.179  17.758  32.607 -0.02 -0.08    +0.176 C 
DOCKED: BRANCH  29  30
DOCKED: ATOM     30  CB6 0Q4 A 125       7.229  17.352  33.673 -0.32 -0.02    +0.035 C 
DOCKED: BRANCH  30  31
DOCKED: ATOM     31  CG6 0Q4 A 125       7.664  18.440  34.717 -0.31 -0.00    +0.002 C 
DOCKED: BRANCH  31  32
DOCKED: ATOM     32  CD4 0Q4 A 125       6.467  19.220  35.391 -0.18 +0.00    -0.004 C 
DOCKED: ATOM     33  CE  0Q4 A 125       6.914  20.583  35.880 -0.53 +0.00    +0.005 C 
DOCKED: ENDBRANCH  31  32
DOCKED: ENDBRANCH  30  31
DOCKED: ENDBRANCH  29  30
DOCKED: BRANCH  29  34
DOCKED: ATOM     34  C6  0Q4 A 125       6.787  17.642  31.199 -0.32 -0.15    +0.238 C 
DOCKED: ATOM     35  O5  0Q4 A 125       6.083  17.889  30.175 -0.55 +0.18    -0.271 OA
DOCKED: ATOM     36  N7  0Q4 A 125       7.983  17.263  31.138 -0.22 +0.41    -0.368 N 
DOCKED: ATOM     37  H72 0Q4 A 125       8.550  17.065  31.962 +0.01 -0.20    +0.159 HD
DOCKED: ATOM     38  H71 0Q4 A 125       8.386  17.186  30.205 -0.25 -0.25    +0.159 HD
DOCKED: ENDBRANCH  29  34
DOCKED: ENDBRANCH  27  29
DOCKED: ENDBRANCH  23  25
DOCKED: ENDBRANCH  21  23
DOCKED: ENDBRANCH  13  19
DOCKED: ENDBRANCH  11  13
DOCKED: ENDBRANCH   1   9
DOCKED: BRANCH   1  39
DOCKED: ATOM     39  N3  0Q4 A 125      -3.086  15.378  33.196 -0.07 +0.25    -0.387 N 
DOCKED: ATOM     40  C2  0Q4 A 125      -4.021  16.147  32.669 -0.29 -0.07    +0.081 C 
DOCKED: ATOM     41  H3  0Q4 A 125      -3.181  15.116  34.132 +0.12 -0.10    +0.159 HD
DOCKED: BRANCH  40  42
DOCKED: ATOM     42  CA2 0Q4 A 125      -5.166  16.528  33.598 -0.31 -0.10    +0.123 C 
DOCKED: BRANCH  42  43
DOCKED: ATOM     43  CB2 0Q4 A 125      -4.826  16.256  35.084 -0.40 -0.02    +0.034 C 
DOCKED: BRANCH  43  44
DOCKED: ATOM     44  CG3 0Q4 A 125      -5.826  16.854  36.113 -0.53 +0.01    -0.020 C 
DOCKED: ATOM     45  CD1 0Q4 A 125      -6.979  17.613  35.457 -0.55 -0.01    +0.009 C 
DOCKED: ATOM     46  CD2 0Q4 A 125      -6.377  15.753  37.001 -0.55 -0.01    +0.009 C 
DOCKED: ENDBRANCH  43  44
DOCKED: ENDBRANCH  42  43
DOCKED: BRANCH  42  47
DOCKED: ATOM     47  N2  0Q4 A 125      -6.467  15.967  33.286 -0.10 +0.31    -0.350 N 
DOCKED: ATOM     48  C1  0Q4 A 125      -6.818  14.772  33.726 +0.14 -0.21    +0.241 C 
DOCKED: ATOM     49  O1  0Q4 A 125      -6.127  14.169  34.539 -0.14 +0.22    -0.271 OA
DOCKED: ATOM     50  HN2 0Q4 A 125      -7.078  16.472  32.704 +0.09 -0.16    +0.163 HD
DOCKED: BRANCH  48  51
DOCKED: ATOM     51  CA1 0Q4 A 125      -8.203  14.254  33.261 -0.34 -0.13    +0.180 C 
DOCKED: BRANCH  51  52
DOCKED: ATOM     52  CB1 0Q4 A 125      -8.459  14.392  31.673 -0.37 -0.01    +0.009 C 
DOCKED: ATOM     53  CG1 0Q4 A 125      -9.021  15.767  31.306 -0.24 -0.01    +0.012 C 
DOCKED: ATOM     54  CG2 0Q4 A 125      -7.145  14.198  30.891 -0.21 -0.01    +0.012 C 
DOCKED: ENDBRANCH  51  52
DOCKED: BRANCH  51  55
DOCKED: ATOM     55  N1  0Q4 A 125      -9.300  14.875  34.005 -0.16 +0.39    -0.346 N 
DOCKED: ATOM     56  C   0Q4 A 125     -10.359  14.189  34.467 -0.15 -0.24    +0.249 C 
DOCKED: ATOM     57  O   0Q4 A 125     -10.500  12.965  34.285 -0.30 +0.17    -0.271 OA
DOCKED: ATOM     58  H1  0Q4 A 125      -9.203  15.837  34.173 -0.21 -0.28    +0.163 HD
DOCKED: BRANCH  56  59
DOCKED: ATOM     59  CA  0Q4 A 125     -11.474  15.013  35.187 +0.25 -0.43    +0.274 C 
DOCKED: BRANCH  59  60
DOCKED: ATOM     60  N   0Q4 A 125     -12.371  15.620  34.156 -0.17 +0.09    -0.067 N 
DOCKED: ATOM     61  H   0Q4 A 125     -13.362  15.449  34.373 +0.11 -0.28    +0.275 HD
DOCKED: ATOM     62  H2  0Q4 A 125     -12.158  16.650  34.166 -0.29 -0.60    +0.275 HD
DOCKED: ATOM     63  HN3 0Q4 A 125     -12.163  15.229  33.223 +0.10 -0.29    +0.275 HD
DOCKED: ENDBRANCH  59  60
DOCKED: BRANCH  59  64
DOCKED: ATOM     64  CB  0Q4 A 125     -12.317  14.165  36.147 -0.41 -0.04    +0.044 C 
DOCKED: BRANCH  64  65
DOCKED: ATOM     65  CG  0Q4 A 125     -13.858  14.099  35.867 -0.34 -0.01    +0.023 C 
DOCKED: BRANCH  65  66
DOCKED: ATOM     66  CD  0Q4 A 125     -14.713  15.284  36.437 -0.21 -0.09    +0.138 C 
DOCKED: BRANCH  66  67
DOCKED: ATOM     67  NE  0Q4 A 125     -15.345  15.021  37.737 -0.20 +0.10    -0.227 N 
DOCKED: ATOM     68  CZ  0Q4 A 125     -15.149  15.748  38.839 +0.06 -0.20    +0.665 C 
DOCKED: ATOM     69  NH1 0Q4 A 125     -14.347  16.798  38.790 -0.12 +0.14    -0.235 N 
DOCKED: ATOM     70  NH2 0Q4 A 125     -15.654  15.357  40.019 -0.21 -0.02    -0.235 N 
DOCKED: ATOM     71 HH11 0Q4 A 125     -13.897  17.047  37.934 +0.06 -0.18    +0.174 HD
DOCKED: ATOM     72 HH12 0Q4 A 125     -14.193  17.350  39.611 +0.09 -0.08    +0.174 HD
DOCKED: ATOM     73 HH21 0Q4 A 125     -16.187  14.515  40.088 -0.43 +0.00    +0.174 HD
DOCKED: ATOM     74 HH22 0Q4 A 125     -15.492  15.917  40.833 +0.09 +0.06    +0.174 HD
DOCKED: ATOM     75  HE  0Q4 A 125     -15.957  14.255  37.812 -0.44 -0.10    +0.177 HD
DOCKED: ENDBRANCH  66  67
DOCKED: ENDBRANCH  65  66
DOCKED: ENDBRANCH  64  65
DOCKED: ENDBRANCH  59  64
DOCKED: ENDBRANCH  56  59
DOCKED: ENDBRANCH  51  55
DOCKED: ENDBRANCH  48  51
DOCKED: ENDBRANCH  42  47
DOCKED: ENDBRANCH  40  42
DOCKED: ENDBRANCH   1  39
DOCKED: TORSDOF 29
DOCKED: TER
DOCKED: ENDMDL
________________________________________________________________________________

DPF> analysis                             # perform a ranked cluster analysis


		CLUSTER ANALYSIS OF CONFORMATIONS
		_________________________________

Number of conformations = 10

RMSD cluster analysis will be performed using the ligand atoms only (75 / 75 total atoms).

Outputting structurally similar clusters, ranked in order of increasing energy.


________________________________________________________________________________

Number of distinct conformational clusters found = 10,  out of 10 runs,
Using an rmsd-tolerance of 2.0 A


	CLUSTERING HISTOGRAM
	____________________

________________________________________________________________________________
     |           |     |           |     |                                    
Clus | Lowest    | Run | Mean      | Num | Histogram                          
-ter | Binding   |     | Binding   | in  |                                    
Rank | Energy    |     | Energy    | Clus|    5    10   15   20   25   30   35
_____|___________|_____|___________|_____|____:____|____:____|____:____|____:___
   1 |     -6.39 |   2 |     -6.39 |   1 |#
   2 |     -6.34 |  10 |     -6.34 |   1 |#
   3 |     -6.25 |   8 |     -6.25 |   1 |#
   4 |     -6.08 |   6 |     -6.08 |   1 |#
   5 |     -5.07 |   1 |     -5.07 |   1 |#
   6 |     -5.03 |   7 |     -5.03 |   1 |#
   7 |     -3.47 |   3 |     -3.47 |   1 |#
   8 |     -1.70 |   5 |     -1.70 |   1 |#
   9 |     +2.33 |   9 |     +2.33 |   1 |#
  10 |     +5.12 |   4 |     +5.12 |   1 |#
_____|___________|_____|___________|_____|______________________________________

	RMSD TABLE
	__________

_____________________________________________________________________
     |      |      |           |         |                 |
Rank | Sub- | Run  | Binding   | Cluster | Reference       | Grep
     | Rank |      | Energy    | RMSD    | RMSD            | Pattern
_____|______|______|___________|_________|_________________|___________
   1      1      2       -6.39      0.00      3.47           RANKING
   2      1     10       -6.34      0.00      3.43           RANKING
   3      1      8       -6.25      0.00      3.24           RANKING
   4      1      6       -6.08      0.00      2.35           RANKING
   5      1      1       -5.07      0.00      3.38           RANKING
   6      1      7       -5.03      0.00      3.21           RANKING
   7      1      3       -3.47      0.00      3.23           RANKING
   8      1      5       -1.70      0.00      3.51           RANKING
   9      1      9       +2.33      0.00      3.65           RANKING
  10      1      4       +5.12      0.00      2.41           RANKING
_______________________________________________________________________



	INFORMATION ENTROPY ANALYSIS FOR THIS CLUSTERING
	________________________________________________


Information entropy for this clustering = 1.00  (rmstol = 2.00 Angstrom)

_______________________________________________________________________


	STATISTICAL MECHANICAL ANALYSIS
	_______________________________


Partition function, Q =    10.06            at Temperature, T = 298.15 K
Free energy,        A ~ -1367.54 kcal/mol   at Temperature, T = 298.15 K
Internal energy,    U =    -3.31 kcal/mol   at Temperature, T = 298.15 K
Entropy,            S =     4.58 kcal/mol/K at Temperature, T = 298.15 K

_______________________________________________________________________


	LOWEST ENERGY DOCKED CONFORMATION from EACH CLUSTER
	___________________________________________________



Keeping original residue number (specified in the input PDBQ file) for outputting.

MODEL        2
USER    Run = 2
USER    Cluster Rank = 1
USER    Number of conformations in this cluster = 1
USER  
USER    RMSD from reference structure       = 3.472 A
USER  
USER    Estimated Free Energy of Binding    =   -6.39 kcal/mol  [=(1)+(2)+(3)-(4)]
USER    Estimated Inhibition Constant, Ki   =   20.62 uM (micromolar)  [Temperature = 298.15 K]
USER    
USER    (1) Final Intermolecular Energy     =  -15.04 kcal/mol
USER        vdW + Hbond + desolv Energy     =  -13.13 kcal/mol
USER        Electrostatic Energy            =   -1.92 kcal/mol
USER    (2) Final Total Internal Energy     =   -5.54 kcal/mol
USER    (3) Torsional Free Energy           =   +8.65 kcal/mol
USER    (4) Unbound System's Energy  [=(2)] =   -5.54 kcal/mol
USER    
USER    
USER  
USER    DPF = dock.dpf
USER    NEWDPF move	lig1bai.pdbqt
USER    NEWDPF about	-1.190000 15.842000 33.892000
USER    NEWDPF tran0	2.010362 16.857918 34.609735
USER    NEWDPF axisangle0	0.589231 0.176831 -0.788376 173.312565
USER    NEWDPF quaternion0	0.588228 0.176530 -0.787034 0.058326
USER    NEWDPF dihe0	-134.09 140.93 169.94 -53.47 -125.26 -154.97 161.18 82.98 -60.53 -180.00 -20.10 -166.85 156.96 23.48 15.25 -178.02 165.95 -126.01 72.74 -21.13 -153.00 -115.85 64.20 -36.85 172.88 -53.44 -180.00 -113.46 -109.32 
USER  
USER                              x       y       z    vdW   Elec        q     RMS 
ATOM      1  CA3 0Q4 A 125       3.772  15.547  33.760 -0.20 -0.11    +0.177     3.472
ATOM      2  CB3 0Q4 A 125       5.083  16.049  33.084 -0.28 -0.05    +0.073     3.472
ATOM      3  CG4 0Q4 A 125       5.171  15.818  31.627 -0.32 +0.04    -0.056     3.472
ATOM      4  CD1 0Q4 A 125       5.239  16.886  30.744 -0.37 -0.00    +0.007     3.472
ATOM      5  CE1 0Q4 A 125       5.368  16.674  29.351 -0.48 -0.00    +0.001     3.472
ATOM      6  CZ1 0Q4 A 125       5.421  15.373  28.839 -0.46 -0.00    +0.000     3.472
ATOM      7  CE2 0Q4 A 125       5.344  14.292  29.715 -0.46 -0.00    +0.001     3.472
ATOM      8  CD2 0Q4 A 125       5.218  14.524  31.118 -0.40 -0.00    +0.007     3.472
ATOM      9  C3  0Q4 A 125       3.528  16.018  35.221 -0.17 -0.13    +0.241     3.472
ATOM     10  O2  0Q4 A 125       3.683  15.233  36.160 -0.18 +0.09    -0.271     3.472
ATOM     11  N4  0Q4 A 125       3.265  17.313  35.398 -0.07 +0.27    -0.346     3.472
ATOM     12  H4  0Q4 A 125       3.145  17.899  34.619 -0.12 -0.18    +0.163     3.472
ATOM     13  CA4 0Q4 A 125       3.089  17.920  36.720 -0.22 -0.13    +0.177     3.472
ATOM     14  CB4 0Q4 A 125       1.605  17.768  37.159 -0.40 -0.04    +0.045     3.472
ATOM     15  CG5 0Q4 A 125       0.682  16.994  36.239 -0.32 -0.11    +0.116     3.472
ATOM     16  CD3 0Q4 A 125       0.103  15.729  36.890 -0.34 -0.08    +0.172     3.472
ATOM     17  OE1 0Q4 A 125      -1.018  15.793  37.427 -0.01 +0.31    -0.648     3.472
ATOM     18  OE2 0Q4 A 125       0.757  14.653  36.870 -0.24 +0.12    -0.648     3.472
ATOM     19  C4  0Q4 A 125       4.008  17.386  37.823 -0.21 -0.08    +0.241     3.472
ATOM     20  O3  0Q4 A 125       3.797  17.613  39.017 -0.23 +0.06    -0.271     3.472
ATOM     21  N5  0Q4 A 125       5.121  16.807  37.405 -0.05 +0.07    -0.346     3.472
ATOM     22  H5  0Q4 A 125       5.318  16.741  36.444 +0.08 -0.05    +0.163     3.472
ATOM     23  CA5 0Q4 A 125       6.072  16.255  38.346 -0.18 +0.00    +0.172     3.472
ATOM     24  CB5 0Q4 A 125       5.466  15.009  38.964 -0.25 -0.00    +0.042     3.472
ATOM     25  C5  0Q4 A 125       7.482  15.921  37.799 -0.09 +0.03    +0.240     3.472
ATOM     26  O4  0Q4 A 125       8.060  16.656  36.995 -0.10 -0.06    -0.271     3.472
ATOM     27  N6  0Q4 A 125       7.981  14.765  38.222 -0.02 -0.00    -0.346     3.472
ATOM     28  H6  0Q4 A 125       7.440  14.228  38.826 +0.05 -0.01    +0.163     3.472
ATOM     29  CA6 0Q4 A 125       9.252  14.212  37.773 -0.10 -0.01    +0.176     3.472
ATOM     30  CB6 0Q4 A 125       9.270  12.692  38.074 -0.15 -0.00    +0.035     3.472
ATOM     31  CG6 0Q4 A 125       8.822  12.228  39.505 -0.08 -0.00    +0.002     3.472
ATOM     32  CD4 0Q4 A 125       7.258  12.181  39.721 -0.15 +0.00    -0.004     3.472
ATOM     33  CE  0Q4 A 125       6.539  11.860  38.427 -0.26 -0.00    +0.005     3.472
ATOM     34  C6  0Q4 A 125       9.306  14.448  36.254 -0.12 -0.04    +0.238     3.472
ATOM     35  O5  0Q4 A 125      10.097  15.309  35.767 -0.17 +0.07    -0.271     3.472
ATOM     36  N7  0Q4 A 125       8.509  13.772  35.557 -0.16 +0.11    -0.368     3.472
ATOM     37  H72 0Q4 A 125       7.872  13.079  35.948 +0.05 -0.03    +0.159     3.472
ATOM     38  H71 0Q4 A 125       8.545  13.929  34.550 -0.42 -0.10    +0.159     3.472
ATOM     39  N3  0Q4 A 125       2.651  16.088  32.983 -0.09 +0.26    -0.387     3.472
ATOM     40  C2  0Q4 A 125       2.490  15.878  31.689 -0.09 -0.05    +0.081     3.472
ATOM     41  H3  0Q4 A 125       1.976  16.618  33.450 +0.09 -0.13    +0.159     3.472
ATOM     42  CA2 0Q4 A 125       1.238  16.487  31.072 -0.22 -0.11    +0.123     3.472
ATOM     43  CB2 0Q4 A 125       1.156  18.015  31.306 -0.02 -0.06    +0.034     3.472
ATOM     44  CG3 0Q4 A 125       0.389  18.450  32.586 -0.42 +0.04    -0.020     3.472
ATOM     45  CD1 0Q4 A 125       1.216  19.350  33.504 -0.20 -0.02    +0.009     3.472
ATOM     46  CD2 0Q4 A 125      -0.901  19.152  32.205 -0.37 -0.02    +0.009     3.472
ATOM     47  N2  0Q4 A 125      -0.025  15.871  31.431 -0.06 +0.24    -0.350     3.472
ATOM     48  C1  0Q4 A 125      -1.033  15.836  30.578 -0.16 -0.16    +0.241     3.472
ATOM     49  O1  0Q4 A 125      -0.886  16.175  29.410 -0.22 +0.18    -0.271     3.472
ATOM     50  HN2 0Q4 A 125      -0.140  15.511  32.339 +0.09 -0.10    +0.163     3.472
ATOM     51  CA1 0Q4 A 125      -2.353  15.217  31.107 -0.22 -0.09    +0.180     3.472
ATOM     52  CB1 0Q4 A 125      -3.449  14.923  29.960 -0.37 -0.00    +0.009     3.472
ATOM     53  CG1 0Q4 A 125      -4.144  16.205  29.495 -0.27 -0.01    +0.012     3.472
ATOM     54  CG2 0Q4 A 125      -2.788  14.274  28.727 -0.06 -0.00    +0.012     3.472
ATOM     55  N1  0Q4 A 125      -2.946  16.020  32.178 -0.10 +0.26    -0.346     3.472
ATOM     56  C   0Q4 A 125      -2.350  16.220  33.365 -0.17 -0.20    +0.249     3.472
ATOM     57  O   0Q4 A 125      -1.246  15.722  33.657 -0.12 +0.18    -0.271     3.472
ATOM     58  H1  0Q4 A 125      -3.809  16.434  31.964 +0.08 -0.14    +0.163     3.472
ATOM     59  CA  0Q4 A 125      -3.145  17.051  34.422 -0.23 -0.25    +0.274     3.472
ATOM     60  N   0Q4 A 125      -4.118  17.936  33.711 -0.17 +0.07    -0.067     3.472
ATOM     61  H   0Q4 A 125      -3.910  18.931  33.875 -0.09 -0.36    +0.275     3.472
ATOM     62  H2  0Q4 A 125      -4.026  17.698  32.691 -0.25 -0.33    +0.275     3.472
ATOM     63  HN3 0Q4 A 125      -5.081  17.742  34.030 +0.13 -0.24    +0.275     3.472
ATOM     64  CB  0Q4 A 125      -3.907  16.172  35.423 -0.31 -0.03    +0.044     3.472
ATOM     65  CG  0Q4 A 125      -4.973  15.187  34.832 -0.41 -0.02    +0.023     3.472
ATOM     66  CD  0Q4 A 125      -6.462  15.681  34.868 -0.37 -0.11    +0.138     3.472
ATOM     67  NE  0Q4 A 125      -7.125  15.549  36.173 -0.29 +0.18    -0.227     3.472
ATOM     68  CZ  0Q4 A 125      -7.140  16.493  37.117 -0.07 -0.54    +0.665     3.472
ATOM     69  NH1 0Q4 A 125      -6.539  17.649  36.889 -0.36 +0.20    -0.235     3.472
ATOM     70  NH2 0Q4 A 125      -7.647  16.241  38.333 -0.44 +0.16    -0.235     3.472
ATOM     71 HH11 0Q4 A 125      -6.082  17.815  36.017 +0.09 -0.14    +0.174     3.472
ATOM     72 HH12 0Q4 A 125      -6.545  18.364  37.591 -0.24 -0.21    +0.174     3.472
ATOM     73 HH21 0Q4 A 125      -8.023  15.341  38.549 +0.12 -0.10    +0.174     3.472
ATOM     74 HH22 0Q4 A 125      -7.645  16.964  39.026 +0.12 -0.11    +0.174     3.472
ATOM     75  HE  0Q4 A 125      -7.593  14.709  36.377 +0.13 -0.12    +0.177     3.472
TER
ENDMDL
MODEL       10
USER    Run = 10
USER    Cluster Rank = 2
USER    Number of conformations in this cluster = 1
USER  
USER    RMSD from reference structure       = 3.428 A
USER  
USER    Estimated Free Energy of Binding    =   -6.34 kcal/mol  [=(1)+(2)+(3)-(4)]
USER    Estimated Inhibition Constant, Ki   =   22.60 uM (micromolar)  [Temperature = 298.15 K]
USER    
USER    (1) Final Intermolecular Energy     =  -14.99 kcal/mol
USER        vdW + Hbond + desolv Energy     =  -13.01 kcal/mol
USER        Electrostatic Energy            =   -1.98 kcal/mol
USER    (2) Final Total Internal Energy     =   -4.67 kcal/mol
USER    (3) Torsional Free Energy           =   +8.65 kcal/mol
USER    (4) Unbound System's Energy  [=(2)] =   -4.67 kcal/mol
USER    
USER    
USER  
USER    DPF = dock.dpf
USER    NEWDPF move	lig1bai.pdbqt
USER    NEWDPF about	-1.190000 15.842000 33.892000
USER    NEWDPF tran0	-1.850601 16.364380 34.268338
USER    NEWDPF axisangle0	0.028050 0.069293 -0.997202 168.300617
USER    NEWDPF quaternion0	0.027904 0.068932 -0.992009 0.101919
USER    NEWDPF dihe0	40.13 -179.97 138.19 -178.43 -135.67 -168.87 82.60 -16.24 -172.42 -170.30 -68.46 152.04 -68.11 54.40 -159.75 164.79 180.00 172.51 126.93 -166.90 -46.40 154.80 -8.79 -180.00 179.96 -179.66 165.32 -154.46 -175.05 
USER  
USER                              x       y       z    vdW   Elec        q     RMS 
ATOM      1  CA3 0Q4 A 125      -1.930  14.876  32.446 -0.01 -0.08    +0.177     3.428
ATOM      2  CB3 0Q4 A 125      -2.168  15.228  30.947 -0.31 -0.04    +0.073     3.428
ATOM      3  CG4 0Q4 A 125      -1.766  16.593  30.548 -0.26 +0.04    -0.056     3.428
ATOM      4  CD1 0Q4 A 125      -0.427  16.917  30.380 -0.33 -0.01    +0.007     3.428
ATOM      5  CE1 0Q4 A 125      -0.036  18.208  29.955 -0.05 -0.00    +0.001     3.428
ATOM      6  CZ1 0Q4 A 125      -1.002  19.189  29.703 -0.15 -0.00    +0.000     3.428
ATOM      7  CE2 0Q4 A 125      -2.350  18.879  29.878 -0.19 -0.00    +0.001     3.428
ATOM      8  CD2 0Q4 A 125      -2.727  17.569  30.304 -0.26 -0.01    +0.007     3.428
ATOM      9  C3  0Q4 A 125      -0.688  15.527  33.115 -0.22 -0.14    +0.241     3.428
ATOM     10  O2  0Q4 A 125       0.202  14.818  33.593 -0.39 +0.09    -0.271     3.428
ATOM     11  N4  0Q4 A 125      -0.592  16.854  33.040 -0.07 +0.36    -0.346     3.428
ATOM     12  H4  0Q4 A 125      -1.329  17.377  32.656 +0.10 -0.20    +0.163     3.428
ATOM     13  CA4 0Q4 A 125       0.558  17.603  33.555 -0.26 -0.25    +0.177     3.428
ATOM     14  CB4 0Q4 A 125       0.420  17.755  35.096 -0.04 -0.07    +0.045     3.428
ATOM     15  CG5 0Q4 A 125      -0.618  16.895  35.791 -0.33 -0.11    +0.116     3.428
ATOM     16  CD3 0Q4 A 125      -0.008  15.703  36.543 -0.23 -0.08    +0.172     3.428
ATOM     17  OE1 0Q4 A 125      -0.400  15.463  37.700 +0.05 +0.25    -0.648     3.428
ATOM     18  OE2 0Q4 A 125       0.868  14.987  35.989 -0.40 +0.16    -0.648     3.428
ATOM     19  C4  0Q4 A 125       1.935  17.022  33.217 -0.21 -0.23    +0.241     3.428
ATOM     20  O3  0Q4 A 125       2.663  17.526  32.359 -0.23 +0.29    -0.271     3.428
ATOM     21  N5  0Q4 A 125       2.218  15.863  33.787 -0.11 +0.21    -0.346     3.428
ATOM     22  H5  0Q4 A 125       1.567  15.428  34.381 +0.08 -0.07    +0.163     3.428
ATOM     23  CA5 0Q4 A 125       3.489  15.212  33.555 -0.10 -0.10    +0.172     3.428
ATOM     24  CB5 0Q4 A 125       3.471  14.608  32.164 +0.53 -0.02    +0.042     3.428
ATOM     25  C5  0Q4 A 125       4.760  16.083  33.718 -0.17 -0.15    +0.240     3.428
ATOM     26  O4  0Q4 A 125       5.386  16.130  34.778 -0.13 +0.14    -0.271     3.428
ATOM     27  N6  0Q4 A 125       5.076  16.807  32.650 -0.11 +0.22    -0.346     3.428
ATOM     28  H6  0Q4 A 125       4.503  16.739  31.866 +0.10 -0.11    +0.163     3.428
ATOM     29  CA6 0Q4 A 125       6.179  17.758  32.607 -0.02 -0.08    +0.176     3.428
ATOM     30  CB6 0Q4 A 125       7.229  17.352  33.673 -0.32 -0.02    +0.035     3.428
ATOM     31  CG6 0Q4 A 125       7.664  18.440  34.717 -0.31 -0.00    +0.002     3.428
ATOM     32  CD4 0Q4 A 125       6.467  19.220  35.391 -0.18 +0.00    -0.004     3.428
ATOM     33  CE  0Q4 A 125       6.914  20.583  35.880 -0.53 +0.00    +0.005     3.428
ATOM     34  C6  0Q4 A 125       6.787  17.642  31.199 -0.32 -0.15    +0.238     3.428
ATOM     35  O5  0Q4 A 125       6.083  17.889  30.175 -0.55 +0.18    -0.271     3.428
ATOM     36  N7  0Q4 A 125       7.983  17.263  31.138 -0.22 +0.41    -0.368     3.428
ATOM     37  H72 0Q4 A 125       8.550  17.065  31.962 +0.01 -0.20    +0.159     3.428
ATOM     38  H71 0Q4 A 125       8.386  17.186  30.205 -0.25 -0.25    +0.159     3.428
ATOM     39  N3  0Q4 A 125      -3.086  15.378  33.196 -0.07 +0.25    -0.387     3.428
ATOM     40  C2  0Q4 A 125      -4.021  16.147  32.669 -0.29 -0.07    +0.081     3.428
ATOM     41  H3  0Q4 A 125      -3.181  15.116  34.132 +0.12 -0.10    +0.159     3.428
ATOM     42  CA2 0Q4 A 125      -5.166  16.528  33.598 -0.31 -0.10    +0.123     3.428
ATOM     43  CB2 0Q4 A 125      -4.826  16.256  35.084 -0.40 -0.02    +0.034     3.428
ATOM     44  CG3 0Q4 A 125      -5.826  16.854  36.113 -0.53 +0.01    -0.020     3.428
ATOM     45  CD1 0Q4 A 125      -6.979  17.613  35.457 -0.55 -0.01    +0.009     3.428
ATOM     46  CD2 0Q4 A 125      -6.377  15.753  37.001 -0.55 -0.01    +0.009     3.428
ATOM     47  N2  0Q4 A 125      -6.467  15.967  33.286 -0.10 +0.31    -0.350     3.428
ATOM     48  C1  0Q4 A 125      -6.818  14.772  33.726 +0.14 -0.21    +0.241     3.428
ATOM     49  O1  0Q4 A 125      -6.127  14.169  34.539 -0.14 +0.22    -0.271     3.428
ATOM     50  HN2 0Q4 A 125      -7.078  16.472  32.704 +0.09 -0.16    +0.163     3.428
ATOM     51  CA1 0Q4 A 125      -8.203  14.254  33.261 -0.34 -0.13    +0.180     3.428
ATOM     52  CB1 0Q4 A 125      -8.459  14.392  31.673 -0.37 -0.01    +0.009     3.428
ATOM     53  CG1 0Q4 A 125      -9.021  15.767  31.306 -0.24 -0.01    +0.012     3.428
ATOM     54  CG2 0Q4 A 125      -7.145  14.198  30.891 -0.21 -0.01    +0.012     3.428
ATOM     55  N1  0Q4 A 125      -9.300  14.875  34.005 -0.16 +0.39    -0.346     3.428
ATOM     56  C   0Q4 A 125     -10.359  14.189  34.467 -0.15 -0.24    +0.249     3.428
ATOM     57  O   0Q4 A 125     -10.500  12.965  34.285 -0.30 +0.17    -0.271     3.428
ATOM     58  H1  0Q4 A 125      -9.203  15.837  34.173 -0.21 -0.28    +0.163     3.428
ATOM     59  CA  0Q4 A 125     -11.474  15.013  35.187 +0.25 -0.43    +0.274     3.428
ATOM     60  N   0Q4 A 125     -12.371  15.620  34.156 -0.17 +0.09    -0.067     3.428
ATOM     61  H   0Q4 A 125     -13.362  15.449  34.373 +0.11 -0.28    +0.275     3.428
ATOM     62  H2  0Q4 A 125     -12.158  16.650  34.166 -0.29 -0.60    +0.275     3.428
ATOM     63  HN3 0Q4 A 125     -12.163  15.229  33.223 +0.10 -0.29    +0.275     3.428
ATOM     64  CB  0Q4 A 125     -12.317  14.165  36.147 -0.41 -0.04    +0.044     3.428
ATOM     65  CG  0Q4 A 125     -13.858  14.099  35.867 -0.34 -0.01    +0.023     3.428
ATOM     66  CD  0Q4 A 125     -14.713  15.284  36.437 -0.21 -0.09    +0.138     3.428
ATOM     67  NE  0Q4 A 125     -15.345  15.021  37.737 -0.20 +0.10    -0.227     3.428
ATOM     68  CZ  0Q4 A 125     -15.149  15.748  38.839 +0.06 -0.20    +0.665     3.428
ATOM     69  NH1 0Q4 A 125     -14.347  16.798  38.790 -0.12 +0.14    -0.235     3.428
ATOM     70  NH2 0Q4 A 125     -15.654  15.357  40.019 -0.21 -0.02    -0.235     3.428
ATOM     71 HH11 0Q4 A 125     -13.897  17.047  37.934 +0.06 -0.18    +0.174     3.428
ATOM     72 HH12 0Q4 A 125     -14.193  17.350  39.611 +0.09 -0.08    +0.174     3.428
ATOM     73 HH21 0Q4 A 125     -16.187  14.515  40.088 -0.43 +0.00    +0.174     3.428
ATOM     74 HH22 0Q4 A 125     -15.492  15.917  40.833 +0.09 +0.06    +0.174     3.428
ATOM     75  HE  0Q4 A 125     -15.957  14.255  37.812 -0.44 -0.10    +0.177     3.428
TER
ENDMDL
MODEL        8
USER    Run = 8
USER    Cluster Rank = 3
USER    Number of conformations in this cluster = 1
USER  
USER    RMSD from reference structure       = 3.244 A
USER  
USER    Estimated Free Energy of Binding    =   -6.25 kcal/mol  [=(1)+(2)+(3)-(4)]
USER    Estimated Inhibition Constant, Ki   =   26.42 uM (micromolar)  [Temperature = 298.15 K]
USER    
USER    (1) Final Intermolecular Energy     =  -14.90 kcal/mol
USER        vdW + Hbond + desolv Energy     =  -13.14 kcal/mol
USER        Electrostatic Energy            =   -1.75 kcal/mol
USER    (2) Final Total Internal Energy     =   -6.79 kcal/mol
USER    (3) Torsional Free Energy           =   +8.65 kcal/mol
USER    (4) Unbound System's Energy  [=(2)] =   -6.79 kcal/mol
USER    
USER    
USER  
USER    DPF = dock.dpf
USER    NEWDPF move	lig1bai.pdbqt
USER    NEWDPF about	-1.190000 15.842000 33.892000
USER    NEWDPF tran0	0.230990 16.234675 34.326520
USER    NEWDPF axisangle0	0.340019 0.257843 -0.904381 -147.447568
USER    NEWDPF quaternion0	0.326391 0.247509 -0.868135 -0.280268
USER    NEWDPF dihe0	-98.01 74.93 153.04 -52.64 103.27 -180.00 -110.25 52.21 -179.81 -156.49 60.14 21.74 65.84 169.13 -90.92 178.39 -166.97 89.16 -179.22 15.36 170.28 153.20 -45.36 -132.10 137.64 75.60 -130.94 58.29 171.72 
USER  
USER                              x       y       z    vdW   Elec        q     RMS 
ATOM      1  CA3 0Q4 A 125       2.128  16.028  32.947 -0.24 -0.12    +0.177     3.244
ATOM      2  CB3 0Q4 A 125       2.491  16.893  31.703 -0.33 -0.07    +0.073     3.244
ATOM      3  CG4 0Q4 A 125       3.913  16.856  31.302 -0.29 +0.04    -0.056     3.244
ATOM      4  CD1 0Q4 A 125       4.914  17.170  32.212 -0.30 -0.00    +0.007     3.244
ATOM      5  CE1 0Q4 A 125       6.279  17.093  31.850 -0.37 -0.00    +0.001     3.244
ATOM      6  CZ1 0Q4 A 125       6.644  16.704  30.556 -0.48 -0.00    +0.000     3.244
ATOM      7  CE2 0Q4 A 125       5.648  16.397  29.631 -0.45 -0.00    +0.001     3.244
ATOM      8  CD2 0Q4 A 125       4.275  16.476  30.014 -0.39 -0.00    +0.007     3.244
ATOM      9  C3  0Q4 A 125       1.985  16.788  34.295 -0.19 -0.20    +0.241     3.244
ATOM     10  O2  0Q4 A 125       2.918  17.471  34.724 -0.17 +0.25    -0.271     3.244
ATOM     11  N4  0Q4 A 125       0.787  16.752  34.880 -0.09 +0.32    -0.346     3.244
ATOM     12  H4  0Q4 A 125       0.076  16.189  34.504 +0.09 -0.12    +0.163     3.244
ATOM     13  CA4 0Q4 A 125       0.478  17.482  36.112 -0.23 -0.22    +0.177     3.244
ATOM     14  CB4 0Q4 A 125       0.007  16.475  37.199 -0.45 -0.03    +0.045     3.244
ATOM     15  CG5 0Q4 A 125       0.517  15.051  37.096 -0.26 -0.03    +0.116     3.244
ATOM     16  CD3 0Q4 A 125       1.800  14.810  37.906 -0.20 -0.04    +0.172     3.244
ATOM     17  OE1 0Q4 A 125       1.998  15.492  38.928 -0.05 +0.15    -0.648     3.244
ATOM     18  OE2 0Q4 A 125       2.625  13.933  37.536 +0.14 +0.09    -0.648     3.244
ATOM     19  C4  0Q4 A 125       1.609  18.351  36.671 -0.21 -0.29    +0.241     3.244
ATOM     20  O3  0Q4 A 125       1.615  19.578  36.543 +0.23 +0.50    -0.271     3.244
ATOM     21  N5  0Q4 A 125       2.646  17.690  37.156 -0.11 +0.23    -0.346     3.244
ATOM     22  H5  0Q4 A 125       2.662  16.708  37.142 +0.10 -0.08    +0.163     3.244
ATOM     23  CA5 0Q4 A 125       3.778  18.394  37.720 -0.14 -0.07    +0.172     3.244
ATOM     24  CB5 0Q4 A 125       3.747  18.221  39.227 -0.22 -0.01    +0.042     3.244
ATOM     25  C5  0Q4 A 125       5.180  18.000  37.189 -0.20 -0.05    +0.240     3.244
ATOM     26  O4  0Q4 A 125       6.099  18.817  37.108 -0.25 -0.02    -0.271     3.244
ATOM     27  N6  0Q4 A 125       5.284  16.740  36.782 -0.04 +0.09    -0.346     3.244
ATOM     28  H6  0Q4 A 125       4.497  16.173  36.845 +0.08 -0.05    +0.163     3.244
ATOM     29  CA6 0Q4 A 125       6.481  16.177  36.171 -0.12 -0.04    +0.176     3.244
ATOM     30  CB6 0Q4 A 125       7.346  15.523  37.279 -0.16 -0.00    +0.035     3.244
ATOM     31  CG6 0Q4 A 125       6.604  14.699  38.389 -0.19 -0.00    +0.002     3.244
ATOM     32  CD4 0Q4 A 125       5.821  13.434  37.858 -0.30 +0.00    -0.004     3.244
ATOM     33  CE  0Q4 A 125       6.778  12.389  37.322 -0.05 -0.00    +0.005     3.244
ATOM     34  C6  0Q4 A 125       5.992  15.105  35.183 -0.13 -0.11    +0.238     3.244
ATOM     35  O5  0Q4 A 125       6.817  14.324  34.624 -0.21 +0.14    -0.271     3.244
ATOM     36  N7  0Q4 A 125       4.757  15.083  34.952 -0.03 +0.19    -0.368     3.244
ATOM     37  H72 0Q4 A 125       4.092  15.711  35.402 +0.08 -0.07    +0.159     3.244
ATOM     38  H71 0Q4 A 125       4.433  14.371  34.297 -0.41 -0.13    +0.159     3.244
ATOM     39  N3  0Q4 A 125       0.810  15.436  32.691 -0.08 +0.22    -0.387     3.244
ATOM     40  C2  0Q4 A 125      -0.060  15.935  31.831 -0.27 -0.06    +0.081     3.244
ATOM     41  H3  0Q4 A 125       0.568  14.619  33.167 +0.07 -0.05    +0.159     3.244
ATOM     42  CA2 0Q4 A 125      -1.356  15.150  31.673 -0.30 -0.06    +0.123     3.244
ATOM     43  CB2 0Q4 A 125      -1.717  14.913  30.186 -0.23 -0.02    +0.034     3.244
ATOM     44  CG3 0Q4 A 125      -3.105  15.457  29.745 -0.35 +0.01    -0.020     3.244
ATOM     45  CD1 0Q4 A 125      -3.026  16.390  28.537 -0.34 -0.00    +0.009     3.244
ATOM     46  CD2 0Q4 A 125      -4.042  14.303  29.442 -0.40 -0.00    +0.009     3.244
ATOM     47  N2  0Q4 A 125      -2.515  15.666  32.378 -0.12 +0.23    -0.350     3.244
ATOM     48  C1  0Q4 A 125      -2.380  16.513  33.383 -0.19 -0.21    +0.241     3.244
ATOM     49  O1  0Q4 A 125      -1.293  17.012  33.648 -0.17 +0.30    -0.271     3.244
ATOM     50  HN2 0Q4 A 125      -3.409  15.346  32.125 +0.07 -0.11    +0.163     3.244
ATOM     51  CA1 0Q4 A 125      -3.688  16.932  34.102 -0.28 -0.16    +0.180     3.244
ATOM     52  CB1 0Q4 A 125      -4.006  16.082  35.437 -0.33 -0.01    +0.009     3.244
ATOM     53  CG1 0Q4 A 125      -4.835  16.888  36.440 -0.26 -0.01    +0.012     3.244
ATOM     54  CG2 0Q4 A 125      -4.798  14.804  35.095 -0.32 -0.01    +0.012     3.244
ATOM     55  N1  0Q4 A 125      -4.843  16.907  33.201 -0.12 +0.31    -0.346     3.244
ATOM     56  C   0Q4 A 125      -6.061  17.349  33.554 -0.27 -0.22    +0.249     3.244
ATOM     57  O   0Q4 A 125      -6.311  17.804  34.686 -0.43 +0.21    -0.271     3.244
ATOM     58  H1  0Q4 A 125      -4.664  16.566  32.299 +0.08 -0.14    +0.163     3.244
ATOM     59  CA  0Q4 A 125      -7.200  17.194  32.496 -0.22 -0.30    +0.274     3.244
ATOM     60  N   0Q4 A 125      -6.841  17.982  31.277 -0.31 +0.09    -0.067     3.244
ATOM     61  H   0Q4 A 125      -6.835  17.390  30.435 +0.13 -0.29    +0.275     3.244
ATOM     62  H2  0Q4 A 125      -7.572  18.734  31.201 +0.17 -0.58    +0.275     3.244
ATOM     63  HN3 0Q4 A 125      -5.908  18.411  31.388 -0.26 -0.35    +0.275     3.244
ATOM     64  CB  0Q4 A 125      -7.447  15.735  32.093 -0.29 -0.04    +0.044     3.244
ATOM     65  CG  0Q4 A 125      -8.868  15.385  31.532 -0.27 -0.02    +0.023     3.244
ATOM     66  CD  0Q4 A 125     -10.044  15.409  32.571 -0.23 -0.16    +0.138     3.244
ATOM     67  NE  0Q4 A 125     -10.186  14.184  33.370 -0.23 +0.19    -0.227     3.244
ATOM     68  CZ  0Q4 A 125     -11.299  13.449  33.442 -0.04 -0.46    +0.665     3.244
ATOM     69  NH1 0Q4 A 125     -12.363  13.811  32.745 -0.11 +0.16    -0.235     3.244
ATOM     70  NH2 0Q4 A 125     -11.390  12.425  34.303 -0.17 +0.16    -0.235     3.244
ATOM     71 HH11 0Q4 A 125     -12.331  14.624  32.167 +0.06 -0.13    +0.174     3.244
ATOM     72 HH12 0Q4 A 125     -13.202  13.266  32.792 +0.02 -0.11    +0.174     3.244
ATOM     73 HH21 0Q4 A 125     -10.625  12.196  34.902 -0.35 -0.11    +0.174     3.244
ATOM     74 HH22 0Q4 A 125     -12.236  11.889  34.341 -0.35 -0.13    +0.174     3.244
ATOM     75  HE  0Q4 A 125      -9.414  13.875  33.894 +0.08 -0.12    +0.177     3.244
TER
ENDMDL
MODEL        6
USER    Run = 6
USER    Cluster Rank = 4
USER    Number of conformations in this cluster = 1
USER  
USER    RMSD from reference structure       = 2.347 A
USER  
USER    Estimated Free Energy of Binding    =   -6.08 kcal/mol  [=(1)+(2)+(3)-(4)]
USER    Estimated Inhibition Constant, Ki   =   34.87 uM (micromolar)  [Temperature = 298.15 K]
USER    
USER    (1) Final Intermolecular Energy     =  -14.73 kcal/mol
USER        vdW + Hbond + desolv Energy     =  -11.98 kcal/mol
USER        Electrostatic Energy            =   -2.75 kcal/mol
USER    (2) Final Total Internal Energy     =   -0.95 kcal/mol
USER    (3) Torsional Free Energy           =   +8.65 kcal/mol
USER    (4) Unbound System's Energy  [=(2)] =   -0.95 kcal/mol
USER    
USER    
USER  
USER    DPF = dock.dpf
USER    NEWDPF move	lig1bai.pdbqt
USER    NEWDPF about	-1.190000 15.842000 33.892000
USER    NEWDPF tran0	0.588215 17.295014 34.345182
USER    NEWDPF axisangle0	-0.102514 -0.334752 0.936713 177.111643
USER    NEWDPF quaternion0	-0.102482 -0.334645 0.936416 0.025203
USER    NEWDPF dihe0	-86.52 70.48 101.66 155.90 11.17 -140.83 60.42 -79.70 -129.20 -119.32 25.69 -142.42 156.54 -152.70 16.16 -54.92 159.91 -136.11 -135.52 -71.18 -117.38 -68.25 98.81 -175.09 64.37 -148.88 -113.67 -163.66 -169.15 
USER  
USER                              x       y       z    vdW   Elec        q     RMS 
ATOM      1  CA3 0Q4 A 125       1.218  16.972  32.099 -0.25 -0.19    +0.177     2.347
ATOM      2  CB3 0Q4 A 125       1.115  17.998  30.931 +0.23 -0.13    +0.073     2.347
ATOM      3  CG4 0Q4 A 125       0.078  17.702  29.921 -0.29 +0.07    -0.056     2.347
ATOM      4  CD1 0Q4 A 125      -0.680  18.722  29.363 -0.33 -0.01    +0.007     2.347
ATOM      5  CE1 0Q4 A 125      -1.643  18.452  28.363 -0.30 -0.00    +0.001     2.347
ATOM      6  CZ1 0Q4 A 125      -1.853  17.141  27.923 +0.11 -0.00    +0.000     2.347
ATOM      7  CE2 0Q4 A 125      -1.105  16.106  28.483 -0.37 -0.00    +0.001     2.347
ATOM      8  CD2 0Q4 A 125      -0.135  16.396  29.489 -0.03 -0.01    +0.007     2.347
ATOM      9  C3  0Q4 A 125       2.103  17.392  33.306 -0.22 -0.26    +0.241     2.347
ATOM     10  O2  0Q4 A 125       3.163  17.994  33.119 -0.23 +0.29    -0.271     2.347
ATOM     11  N4  0Q4 A 125       1.603  17.171  34.522 -0.09 +0.35    -0.346     2.347
ATOM     12  H4  0Q4 A 125       0.758  16.682  34.623 +0.10 -0.15    +0.163     2.347
ATOM     13  CA4 0Q4 A 125       2.284  17.582  35.753 -0.23 -0.17    +0.177     2.347
ATOM     14  CB4 0Q4 A 125       1.279  17.523  36.938 -0.39 -0.04    +0.045     2.347
ATOM     15  CG5 0Q4 A 125       0.724  16.162  37.313 -0.40 -0.06    +0.116     2.347
ATOM     16  CD3 0Q4 A 125       0.796  15.875  38.820 -0.49 -0.06    +0.172     2.347
ATOM     17  OE1 0Q4 A 125       0.827  16.837  39.610 +0.14 +0.24    -0.648     2.347
ATOM     18  OE2 0Q4 A 125       0.819  14.687  39.237 +0.15 +0.10    -0.648     2.347
ATOM     19  C4  0Q4 A 125       3.547  16.791  36.110 -0.15 -0.13    +0.241     2.347
ATOM     20  O3  0Q4 A 125       3.632  16.131  37.148 -0.13 +0.10    -0.271     2.347
ATOM     21  N5  0Q4 A 125       4.586  16.992  35.317 -0.05 +0.20    -0.346     2.347
ATOM     22  H5  0Q4 A 125       4.521  17.614  34.559 -0.16 -0.13    +0.163     2.347
ATOM     23  CA5 0Q4 A 125       5.837  16.300  35.542 -0.14 -0.06    +0.172     2.347
ATOM     24  CB5 0Q4 A 125       5.559  15.067  36.381 -0.24 -0.01    +0.042     2.347
ATOM     25  C5  0Q4 A 125       6.644  15.892  34.284 -0.15 -0.12    +0.240     2.347
ATOM     26  O4  0Q4 A 125       7.606  15.123  34.348 -0.20 +0.15    -0.271     2.347
ATOM     27  N6  0Q4 A 125       6.250  16.478  33.159 -0.08 +0.20    -0.346     2.347
ATOM     28  H6  0Q4 A 125       5.506  17.102  33.205 +0.09 -0.09    +0.163     2.347
ATOM     29  CA6 0Q4 A 125       6.916  16.306  31.874 -0.32 -0.12    +0.176     2.347
ATOM     30  CB6 0Q4 A 125       6.529  17.489  30.949 -0.51 -0.02    +0.035     2.347
ATOM     31  CG6 0Q4 A 125       6.443  17.209  29.408 -0.62 -0.00    +0.002     2.347
ATOM     32  CD4 0Q4 A 125       6.495  15.681  29.012 -0.31 +0.00    -0.004     2.347
ATOM     33  CE  0Q4 A 125       5.156  15.013  29.247 -0.56 -0.00    +0.005     2.347
ATOM     34  C6  0Q4 A 125       8.425  16.340  32.169 -0.26 -0.26    +0.238     2.347
ATOM     35  O5  0Q4 A 125       9.242  15.761  31.394 -0.22 +0.43    -0.271     2.347
ATOM     36  N7  0Q4 A 125       8.774  16.935  33.218 -0.13 +0.32    -0.368     2.347
ATOM     37  H72 0Q4 A 125       8.117  17.402  33.843 +0.08 -0.08    +0.159     2.347
ATOM     38  H71 0Q4 A 125       9.775  16.958  33.413 +0.05 -0.17    +0.159     2.347
ATOM     39  N3  0Q4 A 125      -0.133  16.802  32.647 -0.05 +0.39    -0.387     2.347
ATOM     40  C2  0Q4 A 125      -1.184  17.477  32.218 -0.32 -0.10    +0.081     2.347
ATOM     41  H3  0Q4 A 125      -0.268  16.142  33.353 +0.09 -0.12    +0.159     2.347
ATOM     42  CA2 0Q4 A 125      -2.510  17.126  32.881 -0.27 -0.13    +0.123     2.347
ATOM     43  CB2 0Q4 A 125      -2.330  16.133  34.055 -0.05 -0.03    +0.034     2.347
ATOM     44  CG3 0Q4 A 125      -2.476  16.750  35.474 -0.30 +0.02    -0.020     2.347
ATOM     45  CD1 0Q4 A 125      -2.154  18.243  35.514 -0.12 -0.01    +0.009     2.347
ATOM     46  CD2 0Q4 A 125      -3.880  16.513  36.000 -0.38 -0.01    +0.009     2.347
ATOM     47  N2  0Q4 A 125      -3.567  16.658  32.005 -0.08 +0.31    -0.350     2.347
ATOM     48  C1  0Q4 A 125      -4.059  15.438  32.122 -0.17 -0.18    +0.241     2.347
ATOM     49  O1  0Q4 A 125      -3.756  14.721  33.067 -0.15 +0.19    -0.271     2.347
ATOM     50  HN2 0Q4 A 125      -3.891  17.250  31.290 -0.07 -0.16    +0.163     2.347
ATOM     51  CA1 0Q4 A 125      -5.133  15.033  31.078 -0.06 -0.14    +0.180     2.347
ATOM     52  CB1 0Q4 A 125      -4.671  15.240  29.545 -0.30 -0.00    +0.009     2.347
ATOM     53  CG1 0Q4 A 125      -3.434  14.406  29.206 -0.40 -0.01    +0.012     2.347
ATOM     54  CG2 0Q4 A 125      -5.797  14.825  28.576 -0.26 -0.01    +0.012     2.347
ATOM     55  N1  0Q4 A 125      -6.411  15.706  31.316 -0.07 +0.29    -0.346     2.347
ATOM     56  C   0Q4 A 125      -6.827  16.087  32.534 -0.19 -0.23    +0.249     2.347
ATOM     57  O   0Q4 A 125      -6.162  15.885  33.568 -0.18 +0.24    -0.271     2.347
ATOM     58  H1  0Q4 A 125      -6.945  15.889  30.513 +0.07 -0.13    +0.163     2.347
ATOM     59  CA  0Q4 A 125      -8.245  16.737  32.624 -0.17 -0.36    +0.274     2.347
ATOM     60  N   0Q4 A 125      -8.950  16.546  31.319 -0.12 +0.10    -0.067     2.347
ATOM     61  H   0Q4 A 125      -9.924  16.877  31.366 -0.29 -0.60    +0.275     2.347
ATOM     62  H2  0Q4 A 125      -8.399  17.101  30.616 +0.04 -0.43    +0.275     2.347
ATOM     63  HN3 0Q4 A 125      -8.951  15.549  31.053 +0.10 -0.28    +0.275     2.347
ATOM     64  CB  0Q4 A 125      -9.104  16.145  33.748 -0.04 -0.07    +0.044     2.347
ATOM     65  CG  0Q4 A 125      -9.598  14.669  33.559 -0.39 -0.02    +0.023     2.347
ATOM     66  CD  0Q4 A 125     -11.103  14.494  33.149 -0.23 -0.13    +0.138     2.347
ATOM     67  NE  0Q4 A 125     -11.566  15.409  32.098 -0.08 +0.23    -0.227     2.347
ATOM     68  CZ  0Q4 A 125     -12.019  16.647  32.313 +0.04 -0.93    +0.665     2.347
ATOM     69  NH1 0Q4 A 125     -12.051  17.121  33.547 -0.09 +0.46    -0.235     2.347
ATOM     70  NH2 0Q4 A 125     -12.555  17.365  31.315 -0.05 +0.31    -0.235     2.347
ATOM     71 HH11 0Q4 A 125     -11.735  16.559  34.310 -0.52 -0.47    +0.174     2.347
ATOM     72 HH12 0Q4 A 125     -12.389  18.048  33.719 -0.05 -0.36    +0.174     2.347
ATOM     73 HH21 0Q4 A 125     -12.621  16.985  30.394 +0.01 -0.17    +0.174     2.347
ATOM     74 HH22 0Q4 A 125     -12.890  18.291  31.501 -0.04 -0.23    +0.174     2.347
ATOM     75  HE  0Q4 A 125     -11.548  15.099  31.165 +0.05 -0.14    +0.177     2.347
TER
ENDMDL
MODEL        1
USER    Run = 1
USER    Cluster Rank = 5
USER    Number of conformations in this cluster = 1
USER  
USER    RMSD from reference structure       = 3.379 A
USER  
USER    Estimated Free Energy of Binding    =   -5.07 kcal/mol  [=(1)+(2)+(3)-(4)]
USER    Estimated Inhibition Constant, Ki   =  193.55 uM (micromolar)  [Temperature = 298.15 K]
USER    
USER    (1) Final Intermolecular Energy     =  -13.72 kcal/mol
USER        vdW + Hbond + desolv Energy     =  -12.90 kcal/mol
USER        Electrostatic Energy            =   -0.82 kcal/mol
USER    (2) Final Total Internal Energy     =   -1.41 kcal/mol
USER    (3) Torsional Free Energy           =   +8.65 kcal/mol
USER    (4) Unbound System's Energy  [=(2)] =   -1.41 kcal/mol
USER    
USER    
USER  
USER    DPF = dock.dpf
USER    NEWDPF move	lig1bai.pdbqt
USER    NEWDPF about	-1.190000 15.842000 33.892000
USER    NEWDPF tran0	-1.281807 16.148281 32.665406
USER    NEWDPF axisangle0	0.894225 -0.055965 0.444106 -133.011750
USER    NEWDPF quaternion0	0.820094 -0.051325 0.407290 -0.398655
USER    NEWDPF dihe0	78.48 -155.34 26.56 178.80 0.45 179.32 -95.34 -65.65 -131.24 -98.10 162.44 -104.83 75.64 44.30 48.92 -170.18 64.16 -153.62 151.80 -108.05 136.12 -21.35 99.82 -174.18 -168.87 -174.64 114.47 8.37 -160.22 
USER  
USER                              x       y       z    vdW   Elec        q     RMS 
ATOM      1  CA3 0Q4 A 125      -3.091  16.062  34.170 -0.00 -0.13    +0.177     3.379
ATOM      2  CB3 0Q4 A 125      -3.763  17.257  34.910 -0.38 -0.06    +0.073     3.379
ATOM      3  CG4 0Q4 A 125      -5.020  16.935  35.617 -0.36 +0.04    -0.056     3.379
ATOM      4  CD1 0Q4 A 125      -5.697  17.909  36.339 -0.19 -0.01    +0.007     3.379
ATOM      5  CE1 0Q4 A 125      -6.924  17.620  36.981 -0.24 -0.00    +0.001     3.379
ATOM      6  CZ1 0Q4 A 125      -7.474  16.336  36.904 -0.52 -0.00    +0.000     3.379
ATOM      7  CE2 0Q4 A 125      -6.799  15.347  36.191 -0.41 -0.00    +0.001     3.379
ATOM      8  CD2 0Q4 A 125      -5.564  15.656  35.545 -0.41 -0.00    +0.007     3.379
ATOM      9  C3  0Q4 A 125      -3.120  16.113  32.617 -0.20 -0.19    +0.241     3.379
ATOM     10  O2  0Q4 A 125      -2.760  15.134  31.957 -0.21 +0.15    -0.271     3.379
ATOM     11  N4  0Q4 A 125      -3.651  17.202  32.061 -0.01 +0.36    -0.346     3.379
ATOM     12  H4  0Q4 A 125      -3.919  17.959  32.627 -0.39 -0.22    +0.163     3.379
ATOM     13  CA4 0Q4 A 125      -3.819  17.361  30.614 -0.02 -0.17    +0.177     3.379
ATOM     14  CB4 0Q4 A 125      -2.420  17.489  29.949 -0.32 -0.04    +0.045     3.379
ATOM     15  CG5 0Q4 A 125      -1.696  16.204  29.595 -0.32 -0.07    +0.116     3.379
ATOM     16  CD3 0Q4 A 125      -1.979  15.727  28.163 -0.30 -0.08    +0.172     3.379
ATOM     17  OE1 0Q4 A 125      -1.172  14.947  27.623 +0.09 +0.21    -0.648     3.379
ATOM     18  OE2 0Q4 A 125      -3.012  16.120  27.558 +0.16 +0.26    -0.648     3.379
ATOM     19  C4  0Q4 A 125      -4.623  16.261  29.913 -0.13 -0.16    +0.241     3.379
ATOM     20  O3  0Q4 A 125      -4.175  15.123  29.758 -0.18 +0.15    -0.271     3.379
ATOM     21  N5  0Q4 A 125      -5.752  16.655  29.349 -0.01 +0.22    -0.346     3.379
ATOM     22  H5  0Q4 A 125      -6.029  17.597  29.393 +0.08 -0.12    +0.163     3.379
ATOM     23  CA5 0Q4 A 125      -6.607  15.712  28.661 -0.11 -0.09    +0.172     3.379
ATOM     24  CB5 0Q4 A 125      -5.808  14.452  28.386 -0.27 -0.02    +0.042     3.379
ATOM     25  C5  0Q4 A 125      -7.934  15.332  29.364 -0.11 -0.16    +0.240     3.379
ATOM     26  O4  0Q4 A 125      -9.032  15.558  28.851 -0.07 +0.18    -0.271     3.379
ATOM     27  N6  0Q4 A 125      -7.789  14.801  30.574 -0.13 +0.26    -0.346     3.379
ATOM     28  H6  0Q4 A 125      -6.886  14.693  30.919 +0.02 -0.13    +0.163     3.379
ATOM     29  CA6 0Q4 A 125      -8.899  14.447  31.448 -0.23 -0.14    +0.176     3.379
ATOM     30  CB6 0Q4 A 125      -8.685  15.123  32.827 -0.37 -0.03    +0.035     3.379
ATOM     31  CG6 0Q4 A 125      -8.504  16.681  32.853 -0.33 -0.00    +0.002     3.379
ATOM     32  CD4 0Q4 A 125      -7.214  17.207  32.110 -0.35 +0.00    -0.004     3.379
ATOM     33  CE  0Q4 A 125      -6.272  17.895  33.077 -0.16 -0.00    +0.005     3.379
ATOM     34  C6  0Q4 A 125     -10.165  15.009  30.778 -0.13 -0.20    +0.238     3.379
ATOM     35  O5  0Q4 A 125     -10.351  16.259  30.709 -0.07 +0.38    -0.271     3.379
ATOM     36  N7  0Q4 A 125     -10.989  14.164  30.349 -0.02 +0.21    -0.368     3.379
ATOM     37  H72 0Q4 A 125     -10.840  13.157  30.404 +0.11 -0.04    +0.159     3.379
ATOM     38  H71 0Q4 A 125     -11.828  14.537  29.905 +0.03 -0.09    +0.159     3.379
ATOM     39  N3  0Q4 A 125      -1.670  16.072  34.534 +0.40 +0.29    -0.387     3.379
ATOM     40  C2  0Q4 A 125      -1.152  16.889  35.434 -0.33 -0.08    +0.081     3.379
ATOM     41  H3  0Q4 A 125      -1.076  15.428  34.102 +0.10 -0.09    +0.159     3.379
ATOM     42  CA2 0Q4 A 125       0.336  16.714  35.706 -0.30 -0.11    +0.123     3.379
ATOM     43  CB2 0Q4 A 125       0.864  17.739  36.739 -0.38 -0.04    +0.034     3.379
ATOM     44  CG3 0Q4 A 125       1.474  17.124  38.030 -0.46 +0.01    -0.020     3.379
ATOM     45  CD1 0Q4 A 125       1.377  15.600  38.072 -0.53 -0.00    +0.009     3.379
ATOM     46  CD2 0Q4 A 125       2.924  17.550  38.173 -0.42 -0.00    +0.009     3.379
ATOM     47  N2  0Q4 A 125       1.208  16.697  34.547 -0.08 +0.31    -0.350     3.379
ATOM     48  C1  0Q4 A 125       1.752  17.810  34.087 -0.23 -0.31    +0.241     3.379
ATOM     49  O1  0Q4 A 125       1.670  18.859  34.712 -0.16 +0.51    -0.271     3.379
ATOM     50  HN2 0Q4 A 125       1.361  15.847  34.076 +0.09 -0.10    +0.163     3.379
ATOM     51  CA1 0Q4 A 125       2.604  17.670  32.798 -0.26 -0.20    +0.180     3.379
ATOM     52  CB1 0Q4 A 125       1.826  16.970  31.569 -0.36 -0.01    +0.009     3.379
ATOM     53  CG1 0Q4 A 125       0.455  17.606  31.326 -0.37 -0.02    +0.012     3.379
ATOM     54  CG2 0Q4 A 125       2.640  17.100  30.265 -0.42 -0.01    +0.012     3.379
ATOM     55  N1  0Q4 A 125       3.872  16.983  33.049 -0.12 +0.26    -0.346     3.379
ATOM     56  C   0Q4 A 125       4.504  17.014  34.234 -0.14 -0.17    +0.249     3.379
ATOM     57  O   0Q4 A 125       4.067  17.645  35.215 -0.06 +0.22    -0.271     3.379
ATOM     58  H1  0Q4 A 125       4.228  16.468  32.294 +0.09 -0.11    +0.163     3.379
ATOM     59  CA  0Q4 A 125       5.881  16.281  34.318 -0.13 -0.14    +0.274     3.379
ATOM     60  N   0Q4 A 125       5.664  14.902  34.855 -0.04 +0.04    -0.067     3.379
ATOM     61  H   0Q4 A 125       6.526  14.341  34.807 -0.03 -0.15    +0.275     3.379
ATOM     62  H2  0Q4 A 125       5.357  15.032  35.852 +0.12 -0.10    +0.275     3.379
ATOM     63  HN3 0Q4 A 125       4.924  14.421  34.321 -0.28 -0.25    +0.275     3.379
ATOM     64  CB  0Q4 A 125       6.590  16.183  32.961 -0.32 -0.03    +0.044     3.379
ATOM     65  CG  0Q4 A 125       6.225  14.955  32.058 -0.31 -0.02    +0.023     3.379
ATOM     66  CD  0Q4 A 125       6.565  15.098  30.532 -0.40 -0.08    +0.138     3.379
ATOM     67  NE  0Q4 A 125       5.712  16.040  29.796 -0.25 +0.14    -0.227     3.379
ATOM     68  CZ  0Q4 A 125       6.126  17.205  29.291 -0.02 -0.46    +0.665     3.379
ATOM     69  NH1 0Q4 A 125       7.392  17.560  29.430 -0.32 +0.21    -0.235     3.379
ATOM     70  NH2 0Q4 A 125       5.252  18.070  28.755 -0.37 +0.18    -0.235     3.379
ATOM     71 HH11 0Q4 A 125       8.033  16.960  29.906 +0.00 -0.21    +0.174     3.379
ATOM     72 HH12 0Q4 A 125       7.712  18.432  29.055 -0.10 -0.14    +0.174     3.379
ATOM     73 HH21 0Q4 A 125       4.278  17.854  28.724 +0.12 -0.13    +0.174     3.379
ATOM     74 HH22 0Q4 A 125       5.585  18.939  28.384 -0.32 -0.18    +0.174     3.379
ATOM     75  HE  0Q4 A 125       4.767  15.807  29.661 +0.14 -0.10    +0.177     3.379
TER
ENDMDL
MODEL        7
USER    Run = 7
USER    Cluster Rank = 6
USER    Number of conformations in this cluster = 1
USER  
USER    RMSD from reference structure       = 3.206 A
USER  
USER    Estimated Free Energy of Binding    =   -5.03 kcal/mol  [=(1)+(2)+(3)-(4)]
USER    Estimated Inhibition Constant, Ki   =  206.47 uM (micromolar)  [Temperature = 298.15 K]
USER    
USER    (1) Final Intermolecular Energy     =  -13.68 kcal/mol
USER        vdW + Hbond + desolv Energy     =  -12.68 kcal/mol
USER        Electrostatic Energy            =   -1.00 kcal/mol
USER    (2) Final Total Internal Energy     =   -5.77 kcal/mol
USER    (3) Torsional Free Energy           =   +8.65 kcal/mol
USER    (4) Unbound System's Energy  [=(2)] =   -5.77 kcal/mol
USER    
USER    
USER  
USER    DPF = dock.dpf
USER    NEWDPF move	lig1bai.pdbqt
USER    NEWDPF about	-1.190000 15.842000 33.892000
USER    NEWDPF tran0	-0.924516 16.808753 33.333739
USER    NEWDPF axisangle0	-0.332214 0.902542 0.273955 -134.330253
USER    NEWDPF quaternion0	-0.306177 0.831808 0.252484 -0.388077
USER    NEWDPF dihe0	162.42 136.06 -117.20 3.46 137.64 90.66 -26.16 3.26 -179.10 120.19 169.53 -123.66 112.06 20.67 -139.42 -121.93 57.84 -79.64 123.62 -7.82 180.00 60.69 63.19 68.90 -175.29 97.76 -144.05 -136.86 169.41 
USER  
USER                              x       y       z    vdW   Elec        q     RMS 
ATOM      1  CA3 0Q4 A 125      -2.845  16.981  34.686 -0.29 -0.16    +0.177     3.206
ATOM      2  CB3 0Q4 A 125      -3.718  15.816  35.241 +0.16 -0.05    +0.073     3.206
ATOM      3  CG4 0Q4 A 125      -5.129  16.160  35.514 -0.35 +0.04    -0.056     3.206
ATOM      4  CD1 0Q4 A 125      -6.096  15.167  35.602 -0.43 -0.00    +0.007     3.206
ATOM      5  CE1 0Q4 A 125      -7.440  15.483  35.907 -0.41 -0.00    +0.001     3.206
ATOM      6  CZ1 0Q4 A 125      -7.820  16.813  36.118 -0.22 -0.00    +0.000     3.206
ATOM      7  CE2 0Q4 A 125      -6.861  17.820  36.023 -0.38 -0.00    +0.001     3.206
ATOM      8  CD2 0Q4 A 125      -5.507  17.483  35.718 -0.44 -0.01    +0.007     3.206
ATOM      9  C3  0Q4 A 125      -1.351  16.985  35.114 -0.22 -0.25    +0.241     3.206
ATOM     10  O2  0Q4 A 125      -1.041  17.230  36.283 -0.27 +0.29    -0.271     3.206
ATOM     11  N4  0Q4 A 125      -0.462  16.603  34.196 -0.08 +0.32    -0.346     3.206
ATOM     12  H4  0Q4 A 125      -0.755  16.424  33.276 +0.10 -0.14    +0.163     3.206
ATOM     13  CA4 0Q4 A 125       0.971  16.481  34.474 -0.23 -0.14    +0.177     3.206
ATOM     14  CB4 0Q4 A 125       1.599  17.901  34.557 -0.34 -0.06    +0.045     3.206
ATOM     15  CG5 0Q4 A 125       1.421  18.812  33.358 -0.34 -0.22    +0.116     3.206
ATOM     16  CD3 0Q4 A 125       0.556  18.191  32.251 -0.27 -0.31    +0.172     3.206
ATOM     17  OE1 0Q4 A 125      -0.674  18.381  32.277 -0.05 +1.20    -0.648     3.206
ATOM     18  OE2 0Q4 A 125       1.092  17.508  31.339 -0.00 +0.90    -0.648     3.206
ATOM     19  C4  0Q4 A 125       1.340  15.683  35.729 -0.24 -0.11    +0.241     3.206
ATOM     20  O3  0Q4 A 125       0.507  15.014  36.345 -0.65 +0.07    -0.271     3.206
ATOM     21  N5  0Q4 A 125       2.561  15.886  36.194 -0.09 +0.16    -0.346     3.206
ATOM     22  H5  0Q4 A 125       3.167  16.515  35.743 +0.09 -0.09    +0.163     3.206
ATOM     23  CA5 0Q4 A 125       3.035  15.188  37.369 -0.29 -0.05    +0.172     3.206
ATOM     24  CB5 0Q4 A 125       3.554  13.828  36.942 -0.07 -0.01    +0.042     3.206
ATOM     25  C5  0Q4 A 125       4.115  15.904  38.218 -0.20 -0.05    +0.240     3.206
ATOM     26  O4  0Q4 A 125       3.820  16.649  39.155 -0.24 +0.05    -0.271     3.206
ATOM     27  N6  0Q4 A 125       5.364  15.694  37.817 -0.05 +0.06    -0.346     3.206
ATOM     28  H6  0Q4 A 125       5.505  15.122  37.043 +0.08 -0.04    +0.163     3.206
ATOM     29  CA6 0Q4 A 125       6.530  16.331  38.414 -0.17 +0.02    +0.176     3.206
ATOM     30  CB6 0Q4 A 125       6.395  16.273  39.958 -0.25 +0.00    +0.035     3.206
ATOM     31  CG6 0Q4 A 125       7.573  15.628  40.768 -0.19 +0.00    +0.002     3.206
ATOM     32  CD4 0Q4 A 125       7.737  16.176  42.241 -0.16 +0.00    -0.004     3.206
ATOM     33  CE  0Q4 A 125       7.344  17.636  42.324 -0.19 +0.00    +0.005     3.206
ATOM     34  C6  0Q4 A 125       7.746  15.505  37.962 -0.09 +0.02    +0.238     3.206
ATOM     35  O5  0Q4 A 125       7.846  14.285  38.285 -0.05 +0.02    -0.271     3.206
ATOM     36  N7  0Q4 A 125       8.621  16.117  37.301 -0.02 -0.09    -0.368     3.206
ATOM     37  H72 0Q4 A 125       8.540  17.100  37.041 +0.04 +0.08    +0.159     3.206
ATOM     38  H71 0Q4 A 125       9.427  15.569  37.001 +0.04 +0.01    +0.159     3.206
ATOM     39  N3  0Q4 A 125      -2.831  16.852  33.224 -0.08 +0.37    -0.387     3.206
ATOM     40  C2  0Q4 A 125      -3.041  15.712  32.590 -0.30 -0.06    +0.081     3.206
ATOM     41  H3  0Q4 A 125      -2.676  17.654  32.689 +0.03 -0.20    +0.159     3.206
ATOM     42  CA2 0Q4 A 125      -3.031  15.792  31.069 -0.26 -0.08    +0.123     3.206
ATOM     43  CB2 0Q4 A 125      -2.044  16.863  30.547 -0.31 -0.03    +0.034     3.206
ATOM     44  CG3 0Q4 A 125      -2.127  17.155  29.022 -0.38 +0.01    -0.020     3.206
ATOM     45  CD1 0Q4 A 125      -1.102  18.186  28.552 -0.38 -0.01    +0.009     3.206
ATOM     46  CD2 0Q4 A 125      -1.957  15.867  28.237 -0.43 -0.00    +0.009     3.206
ATOM     47  N2  0Q4 A 125      -4.319  15.960  30.422 -0.06 +0.24    -0.350     3.206
ATOM     48  C1  0Q4 A 125      -5.424  16.106  31.131 -0.15 -0.19    +0.241     3.206
ATOM     49  O1  0Q4 A 125      -5.381  16.264  32.344 -0.16 +0.24    -0.271     3.206
ATOM     50  HN2 0Q4 A 125      -4.369  15.924  29.440 +0.09 -0.09    +0.163     3.206
ATOM     51  CA1 0Q4 A 125      -6.745  16.202  30.323 -0.14 -0.15    +0.180     3.206
ATOM     52  CB1 0Q4 A 125      -6.823  17.479  29.338 -0.22 -0.01    +0.009     3.206
ATOM     53  CG1 0Q4 A 125      -8.204  17.617  28.694 -0.18 -0.01    +0.012     3.206
ATOM     54  CG2 0Q4 A 125      -6.534  18.782  30.111 -0.33 -0.01    +0.012     3.206
ATOM     55  N1  0Q4 A 125      -7.924  16.160  31.190 -0.07 +0.37    -0.346     3.206
ATOM     56  C   0Q4 A 125      -8.258  15.088  31.926 -0.23 -0.22    +0.249     3.206
ATOM     57  O   0Q4 A 125      -7.597  14.032  31.919 -0.35 +0.21    -0.271     3.206
ATOM     58  H1  0Q4 A 125      -8.451  16.986  31.222 +0.03 -0.26    +0.163     3.206
ATOM     59  CA  0Q4 A 125      -9.582  15.184  32.750 -0.20 -0.30    +0.274     3.206
ATOM     60  N   0Q4 A 125      -9.560  16.440  33.560 -0.09 +0.13    -0.067     3.206
ATOM     61  H   0Q4 A 125     -10.384  17.025  33.368 -0.23 -0.65    +0.275     3.206
ATOM     62  H2  0Q4 A 125      -9.546  16.129  34.564 -0.40 -0.72    +0.275     3.206
ATOM     63  HN3 0Q4 A 125      -8.709  16.987  33.352 +0.09 -0.44    +0.275     3.206
ATOM     64  CB  0Q4 A 125     -10.837  15.180  31.867 -0.20 -0.04    +0.044     3.206
ATOM     65  CG  0Q4 A 125     -10.622  15.399  30.330 -0.15 -0.02    +0.023     3.206
ATOM     66  CD  0Q4 A 125     -11.724  14.796  29.388 -0.08 -0.08    +0.138     3.206
ATOM     67  NE  0Q4 A 125     -12.498  13.692  29.972 -0.08 +0.10    -0.227     3.206
ATOM     68  CZ  0Q4 A 125     -13.608  13.843  30.699 +0.01 -0.32    +0.665     3.206
ATOM     69  NH1 0Q4 A 125     -14.082  15.059  30.916 -0.01 +0.12    -0.235     3.206
ATOM     70  NH2 0Q4 A 125     -14.175  12.794  31.313 +0.08 +0.15    -0.235     3.206
ATOM     71 HH11 0Q4 A 125     -13.615  15.855  30.534 +0.03 -0.11    +0.174     3.206
ATOM     72 HH12 0Q4 A 125     -14.913  15.183  31.460 +0.03 -0.09    +0.174     3.206
ATOM     73 HH21 0Q4 A 125     -13.775  11.883  31.232 -0.43 -0.12    +0.174     3.206
ATOM     74 HH22 0Q4 A 125     -15.006  12.932  31.855 -0.44 -0.12    +0.174     3.206
ATOM     75  HE  0Q4 A 125     -12.185  12.772  29.825 +0.02 -0.04    +0.177     3.206
TER
ENDMDL
MODEL        3
USER    Run = 3
USER    Cluster Rank = 7
USER    Number of conformations in this cluster = 1
USER  
USER    RMSD from reference structure       = 3.233 A
USER  
USER    Estimated Free Energy of Binding    =   -3.47 kcal/mol  [=(1)+(2)+(3)-(4)]
USER    Estimated Inhibition Constant, Ki   =    2.84 mM (millimolar)  [Temperature = 298.15 K]
USER    
USER    (1) Final Intermolecular Energy     =  -12.12 kcal/mol
USER        vdW + Hbond + desolv Energy     =  -11.72 kcal/mol
USER        Electrostatic Energy            =   -0.40 kcal/mol
USER    (2) Final Total Internal Energy     =   -0.94 kcal/mol
USER    (3) Torsional Free Energy           =   +8.65 kcal/mol
USER    (4) Unbound System's Energy  [=(2)] =   -0.94 kcal/mol
USER    
USER    
USER  
USER    DPF = dock.dpf
USER    NEWDPF move	lig1bai.pdbqt
USER    NEWDPF about	-1.190000 15.842000 33.892000
USER    NEWDPF tran0	-3.972521 16.783713 30.382858
USER    NEWDPF axisangle0	-0.975906 -0.201836 -0.082888 -177.068690
USER    NEWDPF quaternion0	-0.975586 -0.201770 -0.082861 -0.025578
USER    NEWDPF dihe0	-18.38 179.64 145.94 -111.52 152.84 163.27 -136.22 -136.22 -32.08 67.46 -101.88 158.38 -37.33 -172.34 -115.90 127.80 -102.89 11.23 -180.00 -112.69 -41.50 145.83 -157.28 40.20 -115.80 115.41 133.93 -139.83 130.14 
USER  
USER                              x       y       z    vdW   Elec        q     RMS 
ATOM      1  CA3 0Q4 A 125      -3.670  15.013  31.906 -0.04 -0.11    +0.177     3.233
ATOM      2  CB3 0Q4 A 125      -3.599  15.105  33.460 -0.04 -0.05    +0.073     3.233
ATOM      3  CG4 0Q4 A 125      -4.776  15.719  34.110 -0.30 +0.04    -0.056     3.233
ATOM      4  CD1 0Q4 A 125      -5.920  14.973  34.354 -0.29 -0.01    +0.007     3.233
ATOM      5  CE1 0Q4 A 125      -7.034  15.540  35.017 -0.42 -0.00    +0.001     3.233
ATOM      6  CZ1 0Q4 A 125      -7.000  16.876  35.432 -0.51 -0.00    +0.000     3.233
ATOM      7  CE2 0Q4 A 125      -5.860  17.639  35.184 -0.46 -0.00    +0.001     3.233
ATOM      8  CD2 0Q4 A 125      -4.744  17.049  34.517 -0.37 -0.01    +0.007     3.233
ATOM      9  C3  0Q4 A 125      -4.986  15.515  31.248 -0.15 -0.18    +0.241     3.233
ATOM     10  O2  0Q4 A 125      -5.363  15.039  30.175 -0.17 +0.17    -0.271     3.233
ATOM     11  N4  0Q4 A 125      -5.716  16.381  31.951 -0.08 +0.30    -0.346     3.233
ATOM     12  H4  0Q4 A 125      -5.371  16.738  32.799 +0.08 -0.15    +0.163     3.233
ATOM     13  CA4 0Q4 A 125      -7.016  16.883  31.498 -0.22 -0.19    +0.177     3.233
ATOM     14  CB4 0Q4 A 125      -7.185  16.571  29.984 -0.18 -0.04    +0.045     3.233
ATOM     15  CG5 0Q4 A 125      -7.123  17.740  29.020 -0.18 -0.10    +0.116     3.233
ATOM     16  CD3 0Q4 A 125      -5.695  18.253  28.785 -0.21 -0.11    +0.172     3.233
ATOM     17  OE1 0Q4 A 125      -5.325  18.476  27.617 +0.03 +0.23    -0.648     3.233
ATOM     18  OE2 0Q4 A 125      -4.923  18.443  29.761 +0.07 +0.59    -0.648     3.233
ATOM     19  C4  0Q4 A 125      -8.235  16.365  32.269 -0.19 -0.29    +0.241     3.233
ATOM     20  O3  0Q4 A 125      -8.742  17.003  33.194 -0.25 +0.43    -0.271     3.233
ATOM     21  N5  0Q4 A 125      -8.602  15.127  31.984 -0.13 +0.32    -0.346     3.233
ATOM     22  H5  0Q4 A 125      -8.106  14.600  31.320 +0.05 -0.13    +0.163     3.233
ATOM     23  CA5 0Q4 A 125      -9.742  14.522  32.639 -0.28 -0.15    +0.172     3.233
ATOM     24  CB5 0Q4 A 125     -10.014  15.277  33.926 -0.15 -0.06    +0.042     3.233
ATOM     25  C5  0Q4 A 125     -11.051  14.429  31.815 -0.13 -0.18    +0.240     3.233
ATOM     26  O4  0Q4 A 125     -11.844  13.495  31.953 -0.30 +0.15    -0.271     3.233
ATOM     27  N6  0Q4 A 125     -11.213  15.398  30.920 -0.05 +0.31    -0.346     3.233
ATOM     28  H6  0Q4 A 125     -10.518  16.075  30.849 -0.01 -0.21    +0.163     3.233
ATOM     29  CA6 0Q4 A 125     -12.326  15.463  29.981 -0.05 -0.12    +0.176     3.233
ATOM     30  CB6 0Q4 A 125     -13.629  15.743  30.773 -0.04 -0.02    +0.035     3.233
ATOM     31  CG6 0Q4 A 125     -13.489  16.250  32.251 -0.09 -0.00    +0.002     3.233
ATOM     32  CD4 0Q4 A 125     -12.611  17.553  32.419 -0.19 +0.01    -0.004     3.233
ATOM     33  CE  0Q4 A 125     -13.134  18.418  33.547 -0.28 -0.01    +0.005     3.233
ATOM     34  C6  0Q4 A 125     -12.020  16.640  29.039 -0.02 -0.18    +0.238     3.233
ATOM     35  O5  0Q4 A 125     -10.823  16.992  28.822 -0.06 +0.26    -0.271     3.233
ATOM     36  N7  0Q4 A 125     -13.012  17.229  28.545 +0.01 +0.21    -0.368     3.233
ATOM     37  H72 0Q4 A 125     -13.976  16.946  28.719 +0.01 -0.07    +0.159     3.233
ATOM     38  H71 0Q4 A 125     -12.809  18.010  27.920 +0.02 -0.08    +0.159     3.233
ATOM     39  N3  0Q4 A 125      -2.612  15.880  31.373 -0.08 +0.26    -0.387     3.233
ATOM     40  C2  0Q4 A 125      -2.583  17.189  31.549 -0.24 -0.08    +0.081     3.233
ATOM     41  H3  0Q4 A 125      -1.880  15.466  30.878 +0.08 -0.09    +0.159     3.233
ATOM     42  CA2 0Q4 A 125      -1.378  17.908  30.958 -0.32 -0.16    +0.123     3.233
ATOM     43  CB2 0Q4 A 125      -0.829  17.190  29.700 -0.39 -0.03    +0.034     3.233
ATOM     44  CG3 0Q4 A 125      -1.895  16.823  28.629 -0.40 +0.01    -0.020     3.233
ATOM     45  CD1 0Q4 A 125      -2.518  18.048  27.960 -0.06 -0.01    +0.009     3.233
ATOM     46  CD2 0Q4 A 125      -1.282  15.918  27.576 -0.24 -0.00    +0.009     3.233
ATOM     47  N2  0Q4 A 125      -0.286  18.196  31.868 -0.15 +0.62    -0.350     3.233
ATOM     48  C1  0Q4 A 125      -0.141  17.520  32.994 -0.22 -0.33    +0.241     3.233
ATOM     49  O1  0Q4 A 125      -0.821  16.530  33.229 -0.15 +0.25    -0.271     3.233
ATOM     50  HN2 0Q4 A 125       0.330  18.933  31.658 -0.41 -0.46    +0.163     3.233
ATOM     51  CA1 0Q4 A 125       1.021  17.973  33.916 -0.28 -0.28    +0.180     3.233
ATOM     52  CB1 0Q4 A 125       2.414  17.203  33.648 -0.33 -0.01    +0.009     3.233
ATOM     53  CG1 0Q4 A 125       3.341  17.262  34.864 -0.25 -0.01    +0.012     3.233
ATOM     54  CG2 0Q4 A 125       2.161  15.717  33.322 -0.35 -0.01    +0.012     3.233
ATOM     55  N1  0Q4 A 125       0.663  17.888  35.333 +0.02 +0.56    -0.346     3.233
ATOM     56  C   0Q4 A 125       0.583  16.728  36.004 -0.23 -0.21    +0.249     3.233
ATOM     57  O   0Q4 A 125       0.794  15.624  35.468 -0.33 +0.13    -0.271     3.233
ATOM     58  H1  0Q4 A 125       0.506  18.748  35.780 -0.42 -0.49    +0.163     3.233
ATOM     59  CA  0Q4 A 125       0.127  16.806  37.496 -0.25 -0.18    +0.274     3.233
ATOM     60  N   0Q4 A 125      -1.367  16.765  37.550 -0.36 +0.04    -0.067     3.233
ATOM     61  H   0Q4 A 125      -1.771  17.710  37.481 +0.25 -0.24    +0.275     3.233
ATOM     62  H2  0Q4 A 125      -1.664  16.171  36.735 +0.18 -0.17    +0.275     3.233
ATOM     63  HN3 0Q4 A 125      -1.684  16.333  38.431 +0.20 -0.13    +0.275     3.233
ATOM     64  CB  0Q4 A 125       0.689  15.664  38.353 -0.54 -0.02    +0.044     3.233
ATOM     65  CG  0Q4 A 125       2.183  15.791  38.811 -0.48 -0.01    +0.023     3.233
ATOM     66  CD  0Q4 A 125       2.987  16.996  38.208 -0.32 -0.05    +0.138     3.233
ATOM     67  NE  0Q4 A 125       4.319  16.653  37.692 -0.13 +0.06    -0.227     3.233
ATOM     68  CZ  0Q4 A 125       5.470  16.942  38.304 +0.01 -0.02    +0.665     3.233
ATOM     69  NH1 0Q4 A 125       5.446  17.569  39.468 -0.20 -0.03    -0.235     3.233
ATOM     70  NH2 0Q4 A 125       6.646  16.718  37.698 -0.12 -0.03    -0.235     3.233
ATOM     71 HH11 0Q4 A 125       4.575  17.818  39.887 +0.08 -0.01    +0.174     3.233
ATOM     72 HH12 0Q4 A 125       6.304  17.790  39.936 +0.04 +0.09    +0.174     3.233
ATOM     73 HH21 0Q4 A 125       6.676  16.329  36.779 +0.07 -0.02    +0.174     3.233
ATOM     74 HH22 0Q4 A 125       7.496  16.946  38.176 +0.04 +0.10    +0.174     3.233
ATOM     75  HE  0Q4 A 125       4.379  16.176  36.834 +0.09 -0.06    +0.177     3.233
TER
ENDMDL
MODEL        5
USER    Run = 5
USER    Cluster Rank = 8
USER    Number of conformations in this cluster = 1
USER  
USER    RMSD from reference structure       = 3.515 A
USER  
USER    Estimated Free Energy of Binding    =   -1.70 kcal/mol  [=(1)+(2)+(3)-(4)]
USER    Estimated Inhibition Constant, Ki   =   56.66 mM (millimolar)  [Temperature = 298.15 K]
USER    
USER    (1) Final Intermolecular Energy     =  -10.35 kcal/mol
USER        vdW + Hbond + desolv Energy     =   -8.56 kcal/mol
USER        Electrostatic Energy            =   -1.80 kcal/mol
USER    (2) Final Total Internal Energy     =   -1.26 kcal/mol
USER    (3) Torsional Free Energy           =   +8.65 kcal/mol
USER    (4) Unbound System's Energy  [=(2)] =   -1.26 kcal/mol
USER    
USER    
USER  
USER    DPF = dock.dpf
USER    NEWDPF move	lig1bai.pdbqt
USER    NEWDPF about	-1.190000 15.842000 33.892000
USER    NEWDPF tran0	-1.653944 16.393256 33.075668
USER    NEWDPF axisangle0	0.190053 -0.973487 0.127289 -170.952333
USER    NEWDPF quaternion0	0.189460 -0.970454 0.126893 -0.078874
USER    NEWDPF dihe0	-100.06 -135.57 163.98 18.57 -172.85 -78.71 60.58 126.09 -53.69 -44.72 170.05 164.05 -69.70 5.68 6.02 84.58 -127.81 14.79 -90.01 -178.93 -174.36 174.58 152.42 26.53 -144.01 -129.76 176.31 -88.32 141.44 
USER  
USER                              x       y       z    vdW   Elec        q     RMS 
ATOM      1  CA3 0Q4 A 125      -2.011  18.429  34.203 -0.22 -0.32    +0.177     3.515
ATOM      2  CB3 0Q4 A 125      -2.157  18.647  35.739 +1.06 -0.13    +0.073     3.515
ATOM      3  CG4 0Q4 A 125      -1.516  17.619  36.585 +0.04 +0.06    -0.056     3.515
ATOM      4  CD1 0Q4 A 125      -0.183  17.735  36.953 -0.28 -0.01    +0.007     3.515
ATOM      5  CE1 0Q4 A 125       0.426  16.779  37.800 -0.39 -0.00    +0.001     3.515
ATOM      6  CZ1 0Q4 A 125      -0.311  15.690  38.277 -0.29 -0.00    +0.000     3.515
ATOM      7  CE2 0Q4 A 125      -1.648  15.557  37.906 +0.23 -0.00    +0.001     3.515
ATOM      8  CD2 0Q4 A 125      -2.248  16.533  37.054 -0.14 -0.00    +0.007     3.515
ATOM      9  C3  0Q4 A 125      -0.671  17.807  33.722 -0.22 -0.38    +0.241     3.515
ATOM     10  O2  0Q4 A 125       0.146  18.495  33.105 -0.30 +0.55    -0.271     3.515
ATOM     11  N4  0Q4 A 125      -0.417  16.556  34.107 -0.08 +0.32    -0.346     3.515
ATOM     12  H4  0Q4 A 125      -1.101  16.045  34.592 +0.10 -0.12    +0.163     3.515
ATOM     13  CA4 0Q4 A 125       0.837  15.863  33.798 -0.25 -0.11    +0.177     3.515
ATOM     14  CB4 0Q4 A 125       1.222  16.141  32.318 -0.29 -0.03    +0.045     3.515
ATOM     15  CG5 0Q4 A 125       2.684  16.411  32.018 -0.29 -0.09    +0.116     3.515
ATOM     16  CD3 0Q4 A 125       2.914  16.999  30.617 -0.30 -0.15    +0.172     3.515
ATOM     17  OE1 0Q4 A 125       4.075  17.286  30.274 +0.05 +0.49    -0.648     3.515
ATOM     18  OE2 0Q4 A 125       1.939  17.179  29.840 +0.02 +0.67    -0.648     3.515
ATOM     19  C4  0Q4 A 125       2.022  16.197  34.709 -0.19 -0.16    +0.241     3.515
ATOM     20  O3  0Q4 A 125       2.648  15.323  35.313 -0.19 +0.10    -0.271     3.515
ATOM     21  N5  0Q4 A 125       2.226  17.485  34.928 -0.10 +0.35    -0.346     3.515
ATOM     22  H5  0Q4 A 125       1.638  18.159  34.520 +0.05 -0.24    +0.163     3.515
ATOM     23  CA5 0Q4 A 125       3.318  17.934  35.765 +0.46 -0.16    +0.172     3.515
ATOM     24  CB5 0Q4 A 125       2.842  17.950  37.205 -0.35 -0.03    +0.042     3.515
ATOM     25  C5  0Q4 A 125       4.641  17.133  35.673 -0.12 -0.13    +0.240     3.515
ATOM     26  O4  0Q4 A 125       5.158  16.612  36.663 -0.09 +0.08    -0.271     3.515
ATOM     27  N6  0Q4 A 125       5.191  17.108  34.463 -0.08 +0.20    -0.346     3.515
ATOM     28  H6  0Q4 A 125       4.736  17.580  33.745 -0.02 -0.12    +0.163     3.515
ATOM     29  CA6 0Q4 A 125       6.475  16.487  34.164 -0.19 -0.09    +0.176     3.515
ATOM     30  CB6 0Q4 A 125       6.897  16.883  32.726 -0.37 -0.02    +0.035     3.515
ATOM     31  CG6 0Q4 A 125       7.735  15.843  31.901 -0.46 -0.00    +0.002     3.515
ATOM     32  CD4 0Q4 A 125       6.912  14.600  31.380 -0.55 +0.00    -0.004     3.515
ATOM     33  CE  0Q4 A 125       5.854  15.028  30.383 -0.53 -0.00    +0.005     3.515
ATOM     34  C6  0Q4 A 125       7.474  17.062  35.182 -0.14 -0.06    +0.238     3.515
ATOM     35  O5  0Q4 A 125       7.709  18.305  35.216 -0.25 +0.03    -0.271     3.515
ATOM     36  N7  0Q4 A 125       8.046  16.230  35.930 -0.04 +0.05    -0.368     3.515
ATOM     37  H72 0Q4 A 125       7.857  15.229  35.903 +0.07 -0.04    +0.159     3.515
ATOM     38  H71 0Q4 A 125       8.709  16.612  36.605 +0.04 +0.03    +0.159     3.515
ATOM     39  N3  0Q4 A 125      -3.051  17.475  33.801 -0.12 +0.42    -0.387     3.515
ATOM     40  C2  0Q4 A 125      -3.232  16.304  34.384 -0.23 -0.06    +0.081     3.515
ATOM     41  H3  0Q4 A 125      -3.654  17.725  33.075 -0.15 -0.19    +0.159     3.515
ATOM     42  CA2 0Q4 A 125      -4.394  15.474  33.853 -0.28 -0.09    +0.123     3.515
ATOM     43  CB2 0Q4 A 125      -4.019  14.704  32.564 +0.99 -0.03    +0.034     3.515
ATOM     44  CG3 0Q4 A 125      -3.317  15.551  31.466 -0.32 +0.01    -0.020     3.515
ATOM     45  CD1 0Q4 A 125      -3.338  14.885  30.090 -0.35 -0.00    +0.009     3.515
ATOM     46  CD2 0Q4 A 125      -3.958  16.924  31.381 -0.21 -0.01    +0.009     3.515
ATOM     47  N2  0Q4 A 125      -5.650  16.172  33.655 -0.10 +0.29    -0.350     3.515
ATOM     48  C1  0Q4 A 125      -6.369  15.985  32.564 -0.18 -0.22    +0.241     3.515
ATOM     49  O1  0Q4 A 125      -6.085  15.104  31.762 -0.08 +0.24    -0.271     3.515
ATOM     50  HN2 0Q4 A 125      -5.946  16.824  34.330 +0.11 -0.13    +0.163     3.515
ATOM     51  CA1 0Q4 A 125      -7.654  16.845  32.437 -0.25 -0.21    +0.180     3.515
ATOM     52  CB1 0Q4 A 125      -9.021  16.033  32.716 -0.31 -0.01    +0.009     3.515
ATOM     53  CG1 0Q4 A 125      -9.990  16.128  31.535 -0.14 -0.02    +0.012     3.515
ATOM     54  CG2 0Q4 A 125      -8.726  14.539  32.961 -0.43 -0.01    +0.012     3.515
ATOM     55  N1  0Q4 A 125      -7.729  17.533  31.148 +0.00 +0.52    -0.346     3.515
ATOM     56  C   0Q4 A 125      -7.100  17.099  30.044 -0.12 -0.24    +0.249     3.515
ATOM     57  O   0Q4 A 125      -6.384  16.080  30.033 -0.08 +0.20    -0.271     3.515
ATOM     58  H1  0Q4 A 125      -8.300  18.331  31.130 +0.35 -0.44    +0.163     3.515
ATOM     59  CA  0Q4 A 125      -7.232  17.984  28.763 -0.12 -0.21    +0.274     3.515
ATOM     60  N   0Q4 A 125      -8.665  18.377  28.591 -0.19 +0.07    -0.067     3.515
ATOM     61  H   0Q4 A 125      -9.089  17.907  27.779 +0.07 -0.16    +0.275     3.515
ATOM     62  H2  0Q4 A 125      -9.145  18.093  29.482 -0.37 -0.58    +0.275     3.515
ATOM     63  HN3 0Q4 A 125      -8.744  19.398  28.461 +0.05 -0.28    +0.275     3.515
ATOM     64  CB  0Q4 A 125      -6.369  19.250  28.819 -0.38 -0.03    +0.044     3.515
ATOM     65  CG  0Q4 A 125      -4.854  19.092  28.449 -0.20 -0.01    +0.023     3.515
ATOM     66  CD  0Q4 A 125      -4.201  17.709  28.797 -0.23 -0.09    +0.138     3.515
ATOM     67  NE  0Q4 A 125      -2.762  17.617  28.515 -0.19 +0.15    -0.227     3.515
ATOM     68  CZ  0Q4 A 125      -1.807  18.217  29.231 +0.01 -0.65    +0.665     3.515
ATOM     69  NH1 0Q4 A 125      -2.144  18.940  30.286 -0.17 +0.32    -0.235     3.515
ATOM     70  NH2 0Q4 A 125      -0.529  18.198  28.824 -0.11 +0.26    -0.235     3.515
ATOM     71 HH11 0Q4 A 125      -3.103  19.032  30.546 -0.44 -0.26    +0.174     3.515
ATOM     72 HH12 0Q4 A 125      -1.435  19.394  30.829 +0.01 -0.36    +0.174     3.515
ATOM     73 HH21 0Q4 A 125      -0.273  17.731  27.979 +0.21 -0.14    +0.174     3.515
ATOM     74 HH22 0Q4 A 125       0.170  18.656  29.376 -0.09 -0.33    +0.174     3.515
ATOM     75  HE  0Q4 A 125      -2.470  17.080  27.746 +0.11 -0.09    +0.177     3.515
TER
ENDMDL
MODEL        9
USER    Run = 9
USER    Cluster Rank = 9
USER    Number of conformations in this cluster = 1
USER  
USER    RMSD from reference structure       = 3.651 A
USER  
USER    Estimated Free Energy of Binding    =   +2.33 kcal/mol  [=(1)+(2)+(3)-(4)]
USER    
USER    (1) Final Intermolecular Energy     =   -6.32 kcal/mol
USER        vdW + Hbond + desolv Energy     =   -7.23 kcal/mol
USER        Electrostatic Energy            =   +0.91 kcal/mol
USER    (2) Final Total Internal Energy     =   -2.48 kcal/mol
USER    (3) Torsional Free Energy           =   +8.65 kcal/mol
USER    (4) Unbound System's Energy  [=(2)] =   -2.48 kcal/mol
USER    
USER    
USER  
USER    DPF = dock.dpf
USER    NEWDPF move	lig1bai.pdbqt
USER    NEWDPF about	-1.190000 15.842000 33.892000
USER    NEWDPF tran0	5.550966 15.076862 34.087541
USER    NEWDPF axisangle0	-0.691299 0.530246 0.490861 35.525250
USER    NEWDPF quaternion0	-0.210897 0.161764 0.149749 0.952329
USER    NEWDPF dihe0	-178.10 -57.22 -4.19 -76.18 -179.99 -130.34 -113.41 99.64 -160.45 -59.86 -64.04 179.17 -40.00 176.90 -68.09 -178.19 60.65 -24.01 -179.94 63.14 -134.47 28.59 178.77 -57.77 -107.35 -97.21 91.87 178.72 -84.94 
USER  
USER                              x       y       z    vdW   Elec        q     RMS 
ATOM      1  CA3 0Q4 A 125       6.380  17.186  33.448 -0.24 -0.09    +0.177     3.651
ATOM      2  CB3 0Q4 A 125       7.255  17.520  32.203 -0.28 -0.04    +0.073     3.651
ATOM      3  CG4 0Q4 A 125       6.698  17.086  30.905 -0.43 +0.04    -0.056     3.651
ATOM      4  CD1 0Q4 A 125       6.092  17.998  30.053 -0.41 -0.00    +0.007     3.651
ATOM      5  CE1 0Q4 A 125       5.597  17.599  28.789 -0.53 -0.00    +0.001     3.651
ATOM      6  CZ1 0Q4 A 125       5.704  16.266  28.380 +0.55 -0.00    +0.000     3.651
ATOM      7  CE2 0Q4 A 125       6.301  15.337  29.232 -0.24 -0.00    +0.001     3.651
ATOM      8  CD2 0Q4 A 125       6.799  15.758  30.502 -0.45 -0.00    +0.007     3.651
ATOM      9  C3  0Q4 A 125       4.986  16.562  33.160 -0.20 -0.15    +0.241     3.651
ATOM     10  O2  0Q4 A 125       4.340  16.039  34.072 -0.16 +0.16    -0.271     3.651
ATOM     11  N4  0Q4 A 125       4.498  16.724  31.930 -0.11 +0.23    -0.346     3.651
ATOM     12  H4  0Q4 A 125       5.052  17.141  31.235 +0.11 -0.10    +0.163     3.651
ATOM     13  CA4 0Q4 A 125       3.166  16.261  31.531 -0.26 -0.13    +0.177     3.651
ATOM     14  CB4 0Q4 A 125       2.544  15.433  32.691 -0.24 -0.03    +0.045     3.651
ATOM     15  CG5 0Q4 A 125       1.199  15.885  33.225 -0.28 -0.08    +0.116     3.651
ATOM     16  CD3 0Q4 A 125       0.274  14.717  33.597 -0.30 -0.05    +0.172     3.651
ATOM     17  OE1 0Q4 A 125      -0.655  14.420  32.823 -0.31 +0.17    -0.648     3.651
ATOM     18  OE2 0Q4 A 125       0.463  14.077  34.666 +0.93 -0.11    -0.648     3.651
ATOM     19  C4  0Q4 A 125       2.185  17.353  31.095 -0.24 -0.28    +0.241     3.651
ATOM     20  O3  0Q4 A 125       2.329  18.532  31.428 +0.46 +0.53    -0.271     3.651
ATOM     21  N5  0Q4 A 125       1.095  16.926  30.480 -0.14 +0.36    -0.346     3.651
ATOM     22  H5  0Q4 A 125       0.953  15.965  30.328 +0.11 -0.11    +0.163     3.651
ATOM     23  CA5 0Q4 A 125       0.092  17.858  30.012 -0.23 -0.25    +0.172     3.651
ATOM     24  CB5 0Q4 A 125      -0.666  17.211  28.868 -0.22 -0.03    +0.042     3.651
ATOM     25  C5  0Q4 A 125      -0.918  18.382  31.063 -0.26 -0.41    +0.240     3.651
ATOM     26  O4  0Q4 A 125      -1.390  19.519  31.004 -0.22 +0.62    -0.271     3.651
ATOM     27  N6  0Q4 A 125      -1.183  17.531  32.049 -0.11 +0.44    -0.346     3.651
ATOM     28  H6  0Q4 A 125      -0.737  16.667  32.039 +0.10 -0.15    +0.163     3.651
ATOM     29  CA6 0Q4 A 125      -2.037  17.843  33.187 -0.29 -0.24    +0.176     3.651
ATOM     30  CB6 0Q4 A 125      -3.277  16.913  33.151 -0.32 -0.03    +0.035     3.651
ATOM     31  CG6 0Q4 A 125      -3.059  15.428  32.693 -0.34 -0.00    +0.002     3.651
ATOM     32  CD4 0Q4 A 125      -3.329  15.165  31.159 -0.26 +0.00    -0.004     3.651
ATOM     33  CE  0Q4 A 125      -4.055  16.335  30.527 -0.27 -0.00    +0.005     3.651
ATOM     34  C6  0Q4 A 125      -1.198  17.552  34.443 -0.23 -0.33    +0.238     3.651
ATOM     35  O5  0Q4 A 125      -0.159  18.231  34.690 +0.39 +0.60    -0.271     3.651
ATOM     36  N7  0Q4 A 125      -1.586  16.598  35.162 -0.06 +0.32    -0.368     3.651
ATOM     37  H72 0Q4 A 125      -2.423  16.050  34.963 +0.11 -0.11    +0.159     3.651
ATOM     38  H71 0Q4 A 125      -1.029  16.404  35.994 +0.10 -0.12    +0.159     3.651
ATOM     39  N3  0Q4 A 125       7.106  16.177  34.228 -0.03 +0.19    -0.387     3.651
ATOM     40  C2  0Q4 A 125       8.085  16.468  35.066 -0.20 -0.03    +0.081     3.651
ATOM     41  H3  0Q4 A 125       6.840  15.242  34.139 +0.05 -0.09    +0.159     3.651
ATOM     42  CA2 0Q4 A 125       8.683  15.286  35.818 -0.17 -0.03    +0.123     3.651
ATOM     43  CB2 0Q4 A 125       7.832  14.003  35.659 -0.33 -0.01    +0.034     3.651
ATOM     44  CG3 0Q4 A 125       6.514  13.975  36.484 -0.28 +0.00    -0.020     3.651
ATOM     45  CD1 0Q4 A 125       5.274  14.269  35.640 +0.15 -0.00    +0.009     3.651
ATOM     46  CD2 0Q4 A 125       6.360  12.632  37.172 -0.10 -0.00    +0.009     3.651
ATOM     47  N2  0Q4 A 125       8.987  15.499  37.220 -0.05 -0.03    -0.350     3.651
ATOM     48  C1  0Q4 A 125       9.293  14.487  38.013 -0.07 +0.00    +0.241     3.651
ATOM     49  O1  0Q4 A 125       9.486  13.365  37.561 -0.18 +0.03    -0.271     3.651
ATOM     50  HN2 0Q4 A 125       8.924  16.408  37.590 +0.03 +0.08    +0.163     3.651
ATOM     51  CA1 0Q4 A 125       9.524  14.836  39.506 -0.05 +0.02    +0.180     3.651
ATOM     52  CB1 0Q4 A 125       9.662  13.548  40.470 -0.04 -0.00    +0.009     3.651
ATOM     53  CG1 0Q4 A 125       8.764  13.662  41.704 -0.06 -0.00    +0.012     3.651
ATOM     54  CG2 0Q4 A 125       9.266  12.261  39.719 -0.06 -0.00    +0.012     3.651
ATOM     55  N1  0Q4 A 125       8.499  15.745  40.023 -0.03 -0.13    -0.346     3.651
ATOM     56  C   0Q4 A 125       7.181  15.527  39.878 -0.13 +0.03    +0.249     3.651
ATOM     57  O   0Q4 A 125       6.724  14.536  39.277 -0.10 +0.02    -0.271     3.651
ATOM     58  H1  0Q4 A 125       8.837  16.525  40.513 +0.02 +0.14    +0.163     3.651
ATOM     59  CA  0Q4 A 125       6.220  16.626  40.433 +0.21 +0.04    +0.274     3.651
ATOM     60  N   0Q4 A 125       7.026  17.654  41.161 -0.21 -0.03    -0.067     3.651
ATOM     61  H   0Q4 A 125       6.649  18.600  41.014 +0.10 +0.19    +0.275     3.651
ATOM     62  H2  0Q4 A 125       6.979  17.385  42.176 +0.09 +0.03    +0.275     3.651
ATOM     63  HN3 0Q4 A 125       8.007  17.635  40.839 +0.05 +0.28    +0.275     3.651
ATOM     64  CB  0Q4 A 125       5.404  17.317  39.334 -0.28 +0.00    +0.044     3.651
ATOM     65  CG  0Q4 A 125       4.799  16.398  38.217 -0.28 -0.00    +0.023     3.651
ATOM     66  CD  0Q4 A 125       3.555  16.973  37.452 -0.25 -0.06    +0.138     3.651
ATOM     67  NE  0Q4 A 125       2.280  16.859  38.172 -0.23 +0.10    -0.227     3.651
ATOM     68  CZ  0Q4 A 125       1.241  16.125  37.767 -0.03 -0.29    +0.665     3.651
ATOM     69  NH1 0Q4 A 125       1.336  15.424  36.649 -0.25 +0.09    -0.235     3.651
ATOM     70  NH2 0Q4 A 125       0.064  16.186  38.409 -0.31 +0.10    -0.235     3.651
ATOM     71 HH11 0Q4 A 125       2.181  15.442  36.117 +0.10 -0.07    +0.174     3.651
ATOM     72 HH12 0Q4 A 125       0.563  14.871  36.337 +0.09 -0.04    +0.174     3.651
ATOM     73 HH21 0Q4 A 125      -0.050  16.781  39.203 +0.17 -0.08    +0.174     3.651
ATOM     74 HH22 0Q4 A 125      -0.702  15.628  38.086 +0.11 -0.07    +0.174     3.651
ATOM     75  HE  0Q4 A 125       2.172  17.355  39.014 +0.11 -0.07    +0.177     3.651
TER
ENDMDL
MODEL        4
USER    Run = 4
USER    Cluster Rank = 10
USER    Number of conformations in this cluster = 1
USER  
USER    RMSD from reference structure       = 2.411 A
USER  
USER    Estimated Free Energy of Binding    =   +5.12 kcal/mol  [=(1)+(2)+(3)-(4)]
USER    
USER    (1) Final Intermolecular Energy     =   -3.53 kcal/mol
USER        vdW + Hbond + desolv Energy     =   -5.35 kcal/mol
USER        Electrostatic Energy            =   +1.83 kcal/mol
USER    (2) Final Total Internal Energy     =   +0.72 kcal/mol
USER    (3) Torsional Free Energy           =   +8.65 kcal/mol
USER    (4) Unbound System's Energy  [=(2)] =   +0.72 kcal/mol
USER    
USER    
USER  
USER    DPF = dock.dpf
USER    NEWDPF move	lig1bai.pdbqt
USER    NEWDPF about	-1.190000 15.842000 33.892000
USER    NEWDPF tran0	2.500976 17.873307 33.544955
USER    NEWDPF axisangle0	0.773240 -0.303880 0.556558 63.255112
USER    NEWDPF quaternion0	0.405483 -0.159353 0.291857 0.851475
USER    NEWDPF dihe0	-130.17 137.58 179.61 41.32 -99.26 180.00 -155.62 -24.03 -178.58 126.63 11.82 -180.00 -29.74 -115.64 14.99 -178.88 -41.09 -137.97 -144.69 32.26 78.50 21.42 -57.03 -65.41 -34.48 90.37 154.81 57.08 175.56 
USER  
USER                              x       y       z    vdW   Elec        q     RMS 
ATOM      1  CA3 0Q4 A 125       2.199  17.873  31.210 -0.05 -0.26    +0.177     2.411
ATOM      2  CB3 0Q4 A 125       1.687  16.700  30.322 -0.28 -0.07    +0.073     2.411
ATOM      3  CG4 0Q4 A 125       0.292  16.282  30.572 +0.03 +0.04    -0.056     2.411
ATOM      4  CD1 0Q4 A 125      -0.725  16.651  29.702 -0.33 -0.01    +0.007     2.411
ATOM      5  CE1 0Q4 A 125      -2.055  16.218  29.909 -0.31 -0.00    +0.001     2.411
ATOM      6  CZ1 0Q4 A 125      -2.370  15.412  31.008 -0.32 -0.00    +0.000     2.411
ATOM      7  CE2 0Q4 A 125      -1.360  15.043  31.895 -0.33 -0.00    +0.001     2.411
ATOM      8  CD2 0Q4 A 125      -0.022  15.485  31.668 +0.03 -0.00    +0.007     2.411
ATOM      9  C3  0Q4 A 125       1.228  18.373  32.315 -0.15 -0.46    +0.241     2.411
ATOM     10  O2  0Q4 A 125       0.992  19.578  32.435 +0.36 +0.84    -0.271     2.411
ATOM     11  N4  0Q4 A 125       0.597  17.439  33.027 -0.10 +0.45    -0.346     2.411
ATOM     12  H4  0Q4 A 125       0.823  16.492  32.900 +0.10 -0.14    +0.163     2.411
ATOM     13  CA4 0Q4 A 125      -0.405  17.754  34.049 -0.21 -0.28    +0.177     2.411
ATOM     14  CB4 0Q4 A 125      -1.649  18.389  33.366 -0.41 -0.08    +0.045     2.411
ATOM     15  CG5 0Q4 A 125      -1.406  19.535  32.403 +0.32 -0.30    +0.116     2.411
ATOM     16  CD3 0Q4 A 125      -1.258  19.077  30.945 -0.13 -0.35    +0.172     2.411
ATOM     17  OE1 0Q4 A 125      -2.273  19.038  30.225 +0.06 +0.88    -0.648     2.411
ATOM     18  OE2 0Q4 A 125      -0.126  18.754  30.496 +0.65 +1.55    -0.648     2.411
ATOM     19  C4  0Q4 A 125      -0.846  16.582  34.931 -0.16 -0.22    +0.241     2.411
ATOM     20  O3  0Q4 A 125      -0.826  15.417  34.528 +0.87 +0.14    -0.271     2.411
ATOM     21  N5  0Q4 A 125      -1.396  16.916  36.086 -0.15 +0.32    -0.346     2.411
ATOM     22  H5  0Q4 A 125      -1.502  17.861  36.333 +0.05 -0.22    +0.163     2.411
ATOM     23  CA5 0Q4 A 125      -1.849  15.902  37.015 +0.26 -0.09    +0.172     2.411
ATOM     24  CB5 0Q4 A 125      -1.165  16.135  38.349 -0.36 -0.02    +0.042     2.411
ATOM     25  C5  0Q4 A 125      -3.378  15.792  37.236 -0.19 -0.13    +0.240     2.411
ATOM     26  O4  0Q4 A 125      -3.865  14.992  38.038 -0.38 +0.12    -0.271     2.411
ATOM     27  N6  0Q4 A 125      -4.109  16.581  36.456 -0.05 +0.23    -0.346     2.411
ATOM     28  H6  0Q4 A 125      -3.645  17.154  35.823 +0.11 -0.13    +0.163     2.411
ATOM     29  CA6 0Q4 A 125      -5.566  16.583  36.435 -0.39 -0.12    +0.176     2.411
ATOM     30  CB6 0Q4 A 125      -6.045  17.239  35.114 -0.51 -0.03    +0.035     2.411
ATOM     31  CG6 0Q4 A 125      -4.951  17.837  34.161 -0.05 -0.00    +0.002     2.411
ATOM     32  CD4 0Q4 A 125      -4.367  16.815  33.107 -0.35 +0.00    -0.004     2.411
ATOM     33  CE  0Q4 A 125      -5.432  15.841  32.646 -0.30 -0.00    +0.005     2.411
ATOM     34  C6  0Q4 A 125      -5.994  15.106  36.474 -0.09 -0.14    +0.238     2.411
ATOM     35  O5  0Q4 A 125      -6.994  14.747  37.163 +0.79 +0.16    -0.271     2.411
ATOM     36  N7  0Q4 A 125      -5.282  14.303  35.821 -0.12 +0.21    -0.368     2.411
ATOM     37  H72 0Q4 A 125      -4.477  14.592  35.265 +0.09 -0.10    +0.159     2.411
ATOM     38  H71 0Q4 A 125      -5.566  13.324  35.847 +0.11 -0.08    +0.159     2.411
ATOM     39  N3  0Q4 A 125       3.387  17.390  31.923 -0.08 +0.35    -0.387     2.411
ATOM     40  C2  0Q4 A 125       3.680  16.110  32.070 -0.32 -0.05    +0.081     2.411
ATOM     41  H3  0Q4 A 125       4.005  18.048  32.295 +0.07 -0.13    +0.159     2.411
ATOM     42  CA2 0Q4 A 125       4.980  15.810  32.803 -0.26 -0.08    +0.123     2.411
ATOM     43  CB2 0Q4 A 125       5.834  14.749  32.066 +0.33 -0.02    +0.034     2.411
ATOM     44  CG3 0Q4 A 125       7.334  14.707  32.472 -0.42 +0.01    -0.020     2.411
ATOM     45  CD1 0Q4 A 125       8.270  14.484  31.284 -0.10 -0.01    +0.009     2.411
ATOM     46  CD2 0Q4 A 125       7.713  15.989  33.189 -0.34 -0.01    +0.009     2.411
ATOM     47  N2  0Q4 A 125       4.865  15.455  34.205 -0.04 +0.21    -0.350     2.411
ATOM     48  C1  0Q4 A 125       3.696  15.473  34.819 -0.16 -0.12    +0.241     2.411
ATOM     49  O1  0Q4 A 125       2.656  15.634  34.194 -0.19 +0.14    -0.271     2.411
ATOM     50  HN2 0Q4 A 125       5.680  15.235  34.710 -0.00 -0.09    +0.163     2.411
ATOM     51  CA1 0Q4 A 125       3.717  15.146  36.335 -0.23 -0.06    +0.180     2.411
ATOM     52  CB1 0Q4 A 125       2.380  15.590  37.123 -0.40 -0.00    +0.009     2.411
ATOM     53  CG1 0Q4 A 125       2.001  17.043  36.828 -0.36 -0.01    +0.012     2.411
ATOM     54  CG2 0Q4 A 125       1.186  14.702  36.714 -0.34 -0.00    +0.012     2.411
ATOM     55  N1  0Q4 A 125       4.900  15.696  37.000 -0.05 +0.09    -0.346     2.411
ATOM     56  C   0Q4 A 125       5.094  15.632  38.327 -0.16 -0.04    +0.249     2.411
ATOM     57  O   0Q4 A 125       4.273  15.111  39.105 -0.15 +0.04    -0.271     2.411
ATOM     58  H1  0Q4 A 125       5.568  16.098  36.404 +0.08 -0.05    +0.163     2.411
ATOM     59  CA  0Q4 A 125       6.380  16.323  38.885 -0.15 +0.03    +0.274     2.411
ATOM     60  N   0Q4 A 125       6.784  15.644  40.154 -0.19 -0.00    -0.067     2.411
ATOM     61  H   0Q4 A 125       7.759  15.314  40.110 +0.07 +0.04    +0.275     2.411
ATOM     62  H2  0Q4 A 125       6.666  16.363  40.911 +0.08 +0.03    +0.275     2.411
ATOM     63  HN3 0Q4 A 125       6.170  14.835  40.341 +0.09 -0.02    +0.275     2.411
ATOM     64  CB  0Q4 A 125       7.555  16.283  37.900 -0.12 +0.01    +0.044     2.411
ATOM     65  CG  0Q4 A 125       8.238  14.892  37.666 -0.15 -0.00    +0.023     2.411
ATOM     66  CD  0Q4 A 125       7.289  13.727  37.212 -0.18 -0.02    +0.138     2.411
ATOM     67  NE  0Q4 A 125       6.519  13.100  38.295 -0.12 +0.04    -0.227     2.411
ATOM     68  CZ  0Q4 A 125       7.036  12.689  39.456 +0.04 -0.11    +0.665     2.411
ATOM     69  NH1 0Q4 A 125       8.327  12.857  39.688 -0.03 +0.03    -0.235     2.411
ATOM     70  NH2 0Q4 A 125       6.292  11.999  40.333 +0.02 +0.04    -0.235     2.411
ATOM     71 HH11 0Q4 A 125       8.908  13.292  39.002 +0.04 -0.02    +0.174     2.411
ATOM     72 HH12 0Q4 A 125       8.725  12.552  40.555 +0.03 -0.03    +0.174     2.411
ATOM     73 HH21 0Q4 A 125       5.338  11.786  40.131 +0.12 -0.02    +0.174     2.411
ATOM     74 HH22 0Q4 A 125       6.702  11.699  41.197 +0.04 -0.04    +0.174     2.411
ATOM     75  HE  0Q4 A 125       5.554  12.968  38.167 +0.07 -0.03    +0.177     2.411
TER
ENDMDL


AVSFLD: # AVS field file
AVSFLD: #
AVSFLD: # Created by AutoDock
AVSFLD: #
AVSFLD: ndim=2           # number of dimensions in the field
AVSFLD: nspace=1         # number of physical coordinates
AVSFLD: veclen=7         # vector size
AVSFLD: dim1=75          # atoms
AVSFLD: dim2=10          # conformations
AVSFLD: data=Real       # data type (byte,integer,Real,double)
AVSFLD: field=uniform    # field coordinate layout
AVSFLD: label= x y z vdW Elec q RMS
AVSFLD: variable 1 file = dock.dlg.pdb filetype = ascii offset = 5 stride = 12
AVSFLD: variable 2 file = dock.dlg.pdb filetype = ascii offset = 6 stride = 12
AVSFLD: variable 3 file = dock.dlg.pdb filetype = ascii offset = 7 stride = 12
AVSFLD: variable 4 file = dock.dlg.pdb filetype = ascii offset = 8 stride = 12
AVSFLD: variable 5 file = dock.dlg.pdb filetype = ascii offset = 9 stride = 12
AVSFLD: variable 6 file = dock.dlg.pdb filetype = ascii offset = 10 stride = 12
AVSFLD: variable 7 file = dock.dlg.pdb filetype = ascii offset = 11 stride = 12
AVSFLD: # end of file

>>> Closing the docking parameter file (DPF)...
This docking finished at:			10:10 25" p.m., 11/24/2025


________________________________________________________________________________

.\autodock4.exe: Successful Completion on "LAPTOP-PFTQOH6G"

Real= 1h 28m 26.76s,  CPU= 1m 53.56s,  System= 13.66s
________________________________________________________________________________

