          AutoDock 4.2 Release 4.2.6   
         (C) 1989-2012 The Scripps Research Institute
        AutoDock comes with ABSOLUTELY NO WARRANTY.
        AutoDock is free software, and you are welcome
        to redistribute it under certain conditions;
        for details type 'autodock4 -C'

                     main.cc  $Revision: 1.213 $

                   Compiled on Jul 18 2014 at 15:34:58


This file was created at:			11:43 26" p.m., 11/24/2025
                   on host:		"LAPTOP-PFTQOH6G"
Current Working Directory = "C:\Program Files (x86)\Docking\November 25\2411 Docking\3D3T"

      ________________________________________________________________

                   SETTING UP DEFAULT PARAMETER LIBRARY
      ________________________________________________________________


Random number generator was seeded with values 21864, 1764017006.
Docking parameter file (DPF) used for this docking:		dock.dpf
DPF> autodock_parameter_version 4.2       # used by autodock to validate parameter set

	Autodock parameter version 4.2.
DPF> outlev 1                             # diagnostic output level

Output Level = 1  ADT-COMPATIBLE OUTPUT DURING DOCKING.
DPF> intelec                              # calculate internal electrostatics

Electrostatic energies will be calculated for all non-bonds between moving atoms.
DPF> seed pid time                        # seeds for random generator

Random number generator was seeded with values 21864, 1764017006.
DPF> ligand_types A C HD OA N             # atoms types in ligand

DPF> fld 3d3t.maps.fld                    # grid_data_file

Opening Grid Map Dimensions file:		3d3t.maps.fld
Grid Point Spacing =				0.375 Angstroms

Even Number of User-specified Grid Points =	36 x-points
						38 y-points
						56 z-points

Coordinates of Central Grid Point of Maps =	(9.384, -12.270, 1.152)
Macromolecule file used to create Grid Maps =	3d3t.pdbqt
Grid Parameter file used to create Grid Maps =	grid.gpf
Minimum coordinates in grid = (2.634, -19.395, -9.348)
Maximum coordinates in grid = (16.134, -5.145, 11.652)

DPF> map 3d3t.A.map                       # atom-specific affinity map

DPF> map 3d3t.C.map                       # atom-specific affinity map

DPF> map 3d3t.HD.map                      # atom-specific affinity map

DPF> map 3d3t.OA.map                      # atom-specific affinity map

DPF> map 3d3t.N.map                       # atom-specific affinity map

DPF> elecmap 3d3t.e.map                   # electrostatics map

DPF> desolvmap 3d3t.d.map                 # desolvation map

DPF> move lig3d3t.pdbqt                   # small molecule

1,4-interactions will be _ignored_ in the non-bonded internal energy calculation.

Ligand PDBQT file = "lig3d3t.pdbqt"

INPUT LIGAND PDBQT FILE:
________________________

INPUT-LIGAND-PDBQT: REMARK  26 active torsions:
INPUT-LIGAND-PDBQT: REMARK  status: ('A' for Active; 'I' for Inactive)
INPUT-LIGAND-PDBQT: REMARK    1  A    between atoms: N_1  and  CA_5 
INPUT-LIGAND-PDBQT: REMARK    2  A    between atoms: CA_5  and  C_6 
INPUT-LIGAND-PDBQT: REMARK       I    between atoms: C_6  and  N_8 
INPUT-LIGAND-PDBQT: REMARK    3  A    between atoms: N_8  and  CA_10 
INPUT-LIGAND-PDBQT: REMARK    4  A    between atoms: CA_10  and  CB_13 
INPUT-LIGAND-PDBQT: REMARK    5  A    between atoms: CA_10  and  C_11 
INPUT-LIGAND-PDBQT: REMARK       I    between atoms: C_11  and  N_19 
INPUT-LIGAND-PDBQT: REMARK    6  A    between atoms: CB_13  and  CG_14 
INPUT-LIGAND-PDBQT: REMARK       I    between atoms: CG_14  and  ND2_15 
INPUT-LIGAND-PDBQT: REMARK    7  A    between atoms: N_19  and  CA_21 
INPUT-LIGAND-PDBQT: REMARK    8  A    between atoms: CA_21  and  CB_24 
INPUT-LIGAND-PDBQT: REMARK    9  A    between atoms: CA_21  and  C_22 
INPUT-LIGAND-PDBQT: REMARK       I    between atoms: C_22  and  N_31 
INPUT-LIGAND-PDBQT: REMARK   10  A    between atoms: CB_24  and  CG_25 
INPUT-LIGAND-PDBQT: REMARK   11  A    between atoms: N_31  and  CA_33 
INPUT-LIGAND-PDBQT: REMARK   12  A    between atoms: CA_33  and  CB_36 
INPUT-LIGAND-PDBQT: REMARK   13  A    between atoms: CA_33  and  C_34 
INPUT-LIGAND-PDBQT: REMARK       I    between atoms: C_34  and  N_40 
INPUT-LIGAND-PDBQT: REMARK   14  A    between atoms: CB_36  and  CG_37 
INPUT-LIGAND-PDBQT: REMARK   15  A    between atoms: N_40  and  CA_42 
INPUT-LIGAND-PDBQT: REMARK   16  A    between atoms: CA_42  and  CB_45 
INPUT-LIGAND-PDBQT: REMARK   17  A    between atoms: CA_42  and  C_43 
INPUT-LIGAND-PDBQT: REMARK       I    between atoms: C_43  and  N_52 
INPUT-LIGAND-PDBQT: REMARK   18  A    between atoms: CB_45  and  CG_46 
INPUT-LIGAND-PDBQT: REMARK   19  A    between atoms: CG_46  and  CD_47 
INPUT-LIGAND-PDBQT: REMARK       I    between atoms: CD_47  and  NE2_48 
INPUT-LIGAND-PDBQT: REMARK   20  A    between atoms: N_52  and  CA_54 
INPUT-LIGAND-PDBQT: REMARK   21  A    between atoms: CA_54  and  C_55 
INPUT-LIGAND-PDBQT: REMARK   22  A    between atoms: CA_54  and  CB_57 
INPUT-LIGAND-PDBQT: REMARK       I    between atoms: C_55  and  N_60 
INPUT-LIGAND-PDBQT: REMARK   23  A    between atoms: CB_57  and  OG_58 
INPUT-LIGAND-PDBQT: REMARK   24  A    between atoms: N_60  and  CA_62 
INPUT-LIGAND-PDBQT: REMARK   25  A    between atoms: CA_62  and  C_63 
INPUT-LIGAND-PDBQT: REMARK       I    between atoms: C_63  and  N_66 
INPUT-LIGAND-PDBQT: REMARK   26  A    between atoms: CA_67  and  C_68 
INPUT-LIGAND-PDBQT: ROOT
INPUT-LIGAND-PDBQT: ATOM      1  CA  LEU P   6      10.845 -15.394   0.432  1.00 27.45     0.177 C 
INPUT-LIGAND-PDBQT: ENDROOT
INPUT-LIGAND-PDBQT: BRANCH   1   2
INPUT-LIGAND-PDBQT: ATOM      2  N   LEU P   6       9.795 -15.816  -0.474  1.00 26.96    -0.346 N 
INPUT-LIGAND-PDBQT: ATOM      3  C   PHE P   5       8.964 -16.793  -0.137  1.00 26.65     0.241 C 
INPUT-LIGAND-PDBQT: ATOM      4  O   PHE P   5       9.208 -17.594   0.768  1.00 26.89    -0.271 OA
INPUT-LIGAND-PDBQT: ATOM      5  HN  LEU P   6       9.694 -15.357  -1.379  1.00  0.00     0.163 HD
INPUT-LIGAND-PDBQT: BRANCH   3   6
INPUT-LIGAND-PDBQT: ATOM      6  CA  PHE P   5       7.658 -16.873  -0.926  1.00 26.38     0.180 C 
INPUT-LIGAND-PDBQT: BRANCH   6   7
INPUT-LIGAND-PDBQT: ATOM      7  N   PHE P   5       7.815 -17.188  -2.345  1.00 25.31    -0.346 N 
INPUT-LIGAND-PDBQT: ATOM      8  C   ASN P   4       7.846 -16.221  -3.257  1.00 24.19     0.241 C 
INPUT-LIGAND-PDBQT: ATOM      9  O   ASN P   4       7.875 -15.029  -2.951  1.00 24.53    -0.271 OA
INPUT-LIGAND-PDBQT: ATOM     10  HN  PHE P   5       7.902 -18.161  -2.639  1.00  0.00     0.163 HD
INPUT-LIGAND-PDBQT: BRANCH   8  11
INPUT-LIGAND-PDBQT: ATOM     11  CA  ASN P   4       7.831 -16.659  -4.722  1.00 23.29     0.185 C 
INPUT-LIGAND-PDBQT: BRANCH  11  12
INPUT-LIGAND-PDBQT: ATOM     12  N   ASN P   4       6.463 -16.724  -5.234  1.00 22.91    -0.346 N 
INPUT-LIGAND-PDBQT: ATOM     13  C   GLY P   3       5.965 -17.837  -5.766  1.00 22.73     0.243 C 
INPUT-LIGAND-PDBQT: ATOM     14  O   GLY P   3       6.638 -18.855  -5.928  1.00 23.06    -0.272 OA
INPUT-LIGAND-PDBQT: ATOM     15  HN  ASN P   4       5.874 -15.893  -5.182  1.00  0.00     0.163 HD
INPUT-LIGAND-PDBQT: BRANCH  13  16
INPUT-LIGAND-PDBQT: ATOM     16  CA  GLY P   3       4.508 -17.800  -6.182  1.00 22.18     0.332 C 
INPUT-LIGAND-PDBQT: BRANCH  16  17
INPUT-LIGAND-PDBQT: ATOM     17  N   GLY P   3       4.236 -16.563  -6.960  1.00 22.17    -0.071 N 
INPUT-LIGAND-PDBQT: ATOM     18  HN3 GLY P   3       4.511 -15.722  -6.452  1.00  0.00     0.274 HD
INPUT-LIGAND-PDBQT: ATOM     19  HN2 GLY P   3       4.865 -16.466  -7.757  1.00  0.00     0.274 HD
INPUT-LIGAND-PDBQT: ATOM     20  HN1 GLY P   3       3.255 -16.538  -7.240  1.00  0.00     0.274 HD
INPUT-LIGAND-PDBQT: ENDBRANCH  16  17
INPUT-LIGAND-PDBQT: ENDBRANCH  13  16
INPUT-LIGAND-PDBQT: ENDBRANCH  11  12
INPUT-LIGAND-PDBQT: BRANCH  11  21
INPUT-LIGAND-PDBQT: ATOM     21  CB  ASN P   4       8.687 -15.723  -5.586  1.00 22.87     0.137 C 
INPUT-LIGAND-PDBQT: BRANCH  21  22
INPUT-LIGAND-PDBQT: ATOM     22  CG  ASN P   4       8.777 -16.183  -7.039  1.00 22.01     0.217 C 
INPUT-LIGAND-PDBQT: ATOM     23  OD1 ASN P   4       9.073 -17.347  -7.318  1.00 20.72    -0.274 OA
INPUT-LIGAND-PDBQT: ATOM     24  ND2 ASN P   4       8.520 -15.266  -7.970  1.00 20.11    -0.370 N 
INPUT-LIGAND-PDBQT: ATOM     25 2HD2 ASN P   4       8.275 -14.303  -7.739  1.00  0.00     0.159 HD
INPUT-LIGAND-PDBQT: ATOM     26 1HD2 ASN P   4       8.580 -15.573  -8.941  1.00  0.00     0.159 HD
INPUT-LIGAND-PDBQT: ENDBRANCH  21  22
INPUT-LIGAND-PDBQT: ENDBRANCH  11  21
INPUT-LIGAND-PDBQT: ENDBRANCH   8  11
INPUT-LIGAND-PDBQT: ENDBRANCH   6   7
INPUT-LIGAND-PDBQT: BRANCH   6  27
INPUT-LIGAND-PDBQT: ATOM     27  CB  PHE P   5       6.656 -17.821  -0.252  1.00 26.72     0.073 C 
INPUT-LIGAND-PDBQT: BRANCH  27  28
INPUT-LIGAND-PDBQT: ATOM     28  CG  PHE P   5       5.345 -17.923  -0.976  1.00 27.87    -0.056 A 
INPUT-LIGAND-PDBQT: ATOM     29  CD1 PHE P   5       4.348 -16.975  -0.770  1.00 28.75     0.007 A 
INPUT-LIGAND-PDBQT: ATOM     30  CE1 PHE P   5       3.135 -17.055  -1.450  1.00 29.75     0.001 A 
INPUT-LIGAND-PDBQT: ATOM     31  CZ  PHE P   5       2.906 -18.091  -2.349  1.00 30.09     0.000 A 
INPUT-LIGAND-PDBQT: ATOM     32  CE2 PHE P   5       3.897 -19.052  -2.561  1.00 31.07     0.001 A 
INPUT-LIGAND-PDBQT: ATOM     33  CD2 PHE P   5       5.111 -18.961  -1.874  1.00 29.29     0.007 A 
INPUT-LIGAND-PDBQT: ENDBRANCH  27  28
INPUT-LIGAND-PDBQT: ENDBRANCH   6  27
INPUT-LIGAND-PDBQT: ENDBRANCH   3   6
INPUT-LIGAND-PDBQT: ENDBRANCH   1   2
INPUT-LIGAND-PDBQT: BRANCH   1  34
INPUT-LIGAND-PDBQT: ATOM     34  CB  LEU P   6      11.625 -14.219  -0.162  1.00 27.44     0.038 C 
INPUT-LIGAND-PDBQT: BRANCH  34  35
INPUT-LIGAND-PDBQT: ATOM     35  CG  LEU P   6      12.516 -13.425   0.802  1.00 27.32    -0.020 C 
INPUT-LIGAND-PDBQT: ATOM     36  CD2 LEU P   6      12.981 -12.095   0.223  1.00 27.17     0.009 C 
INPUT-LIGAND-PDBQT: ATOM     37  CD1 LEU P   6      13.686 -14.265   1.240  1.00 26.03     0.009 C 
INPUT-LIGAND-PDBQT: ENDBRANCH  34  35
INPUT-LIGAND-PDBQT: ENDBRANCH   1  34
INPUT-LIGAND-PDBQT: BRANCH   1  38
INPUT-LIGAND-PDBQT: ATOM     38  C   LEU P   6      10.196 -14.954   1.740  1.00 27.77     0.241 C 
INPUT-LIGAND-PDBQT: ATOM     39  O   LEU P   6       9.097 -14.414   1.747  1.00 27.73    -0.271 OA
INPUT-LIGAND-PDBQT: ATOM     40  N   GLN P   7      10.886 -15.178   2.846  1.00 28.31    -0.346 N 
INPUT-LIGAND-PDBQT: ATOM     41  HN  GLN P   7      11.756 -15.706   2.788  1.00  0.00     0.163 HD
INPUT-LIGAND-PDBQT: BRANCH  40  42
INPUT-LIGAND-PDBQT: ATOM     42  CA  GLN P   7      10.443 -14.696   4.135  1.00 29.28     0.177 C 
INPUT-LIGAND-PDBQT: BRANCH  42  43
INPUT-LIGAND-PDBQT: ATOM     43  CB  GLN P   7       9.421 -15.661   4.731  1.00 28.99     0.044 C 
INPUT-LIGAND-PDBQT: BRANCH  43  44
INPUT-LIGAND-PDBQT: ATOM     44  CG  GLN P   7       8.763 -15.191   6.005  1.00 27.75     0.105 C 
INPUT-LIGAND-PDBQT: BRANCH  44  45
INPUT-LIGAND-PDBQT: ATOM     45  CD  GLN P   7       9.548 -15.553   7.226  1.00 26.02     0.215 C 
INPUT-LIGAND-PDBQT: ATOM     46  OE1 GLN P   7      10.290 -16.529   7.235  1.00 25.45    -0.274 OA
INPUT-LIGAND-PDBQT: ATOM     47  NE2 GLN P   7       9.392 -14.768   8.271  1.00 25.39    -0.370 N 
INPUT-LIGAND-PDBQT: ATOM     48 2HE2 GLN P   7       9.927 -15.015   9.103  1.00  0.00     0.159 HD
INPUT-LIGAND-PDBQT: ATOM     49 1HE2 GLN P   7       8.775 -13.956   8.264  1.00  0.00     0.159 HD
INPUT-LIGAND-PDBQT: ENDBRANCH  44  45
INPUT-LIGAND-PDBQT: ENDBRANCH  43  44
INPUT-LIGAND-PDBQT: ENDBRANCH  42  43
INPUT-LIGAND-PDBQT: BRANCH  42  50
INPUT-LIGAND-PDBQT: ATOM     50  C   GLN P   7      11.643 -14.501   5.063  1.00 30.56     0.241 C 
INPUT-LIGAND-PDBQT: ATOM     51  O   GLN P   7      12.349 -15.439   5.401  1.00 30.78    -0.271 OA
INPUT-LIGAND-PDBQT: ATOM     52  N   SER P   8      11.895 -13.259   5.442  1.00 32.07    -0.344 N 
INPUT-LIGAND-PDBQT: ATOM     53  HN  SER P   8      11.380 -12.489   5.014  1.00  0.00     0.163 HD
INPUT-LIGAND-PDBQT: BRANCH  52  54
INPUT-LIGAND-PDBQT: ATOM     54  CA  SER P   8      12.886 -12.976   6.450  1.00 33.85     0.200 C 
INPUT-LIGAND-PDBQT: BRANCH  54  55
INPUT-LIGAND-PDBQT: ATOM     55  C   SER P   8      12.122 -12.206   7.512  1.00 35.57     0.243 C 
INPUT-LIGAND-PDBQT: ATOM     56  O   SER P   8      10.978 -11.804   7.306  1.00 36.10    -0.271 OA
INPUT-LIGAND-PDBQT: ATOM     57  N   ARG P   9      12.734 -12.013   8.665  1.00 37.22    -0.346 N 
INPUT-LIGAND-PDBQT: ATOM     58  HN  ARG P   9      13.590 -12.526   8.878  1.00  0.00     0.163 HD
INPUT-LIGAND-PDBQT: BRANCH  57  59
INPUT-LIGAND-PDBQT: ATOM     59  CA  ARG P   9      12.198 -11.081   9.623  1.00 38.61     0.172 C 
INPUT-LIGAND-PDBQT: ATOM     60  CB  ARG P   9      11.939 -11.770  10.941  1.00 38.49     0.042 C 
INPUT-LIGAND-PDBQT: BRANCH  59  61
INPUT-LIGAND-PDBQT: ATOM     61  C   ARG P   9      13.245  -9.990   9.776  1.00 40.02     0.243 C 
INPUT-LIGAND-PDBQT: ATOM     62  N   PRO P  10      13.004  -8.836   9.155  1.00 40.73    -0.336 N 
INPUT-LIGAND-PDBQT: ATOM     63  CD  PRO P  10      12.385  -8.701   7.832  1.00 41.01     0.127 C 
INPUT-LIGAND-PDBQT: ATOM     64  CA  PRO P  10      13.581  -7.566   9.556  1.00 41.26     0.188 C 
INPUT-LIGAND-PDBQT: ATOM     65  CG  PRO P  10      13.360  -7.762   7.176  1.00 41.81     0.022 C 
INPUT-LIGAND-PDBQT: ATOM     66  CB  PRO P  10      14.111  -7.053   8.205  1.00 41.41     0.038 C 
INPUT-LIGAND-PDBQT: ATOM     67  O   ARG P   9      14.310 -10.219  10.352  1.00 40.72    -0.271 OA
INPUT-LIGAND-PDBQT: BRANCH  64  68
INPUT-LIGAND-PDBQT: ATOM     68  C   PRO P  10      12.497  -6.627  10.101  1.00 41.88     0.196 C 
INPUT-LIGAND-PDBQT: ATOM     69  O   PRO P  10      11.311  -6.984  10.194  1.00 41.83    -0.646 OA
INPUT-LIGAND-PDBQT: ATOM     70  OXT PRO P  10      12.778  -5.481  10.471  1.00 42.32    -0.646 OA
INPUT-LIGAND-PDBQT: ENDBRANCH  64  68
INPUT-LIGAND-PDBQT: ENDBRANCH  59  61
INPUT-LIGAND-PDBQT: ENDBRANCH  57  59
INPUT-LIGAND-PDBQT: ENDBRANCH  54  55
INPUT-LIGAND-PDBQT: BRANCH  54  71
INPUT-LIGAND-PDBQT: ATOM     71  CB  SER P   8      14.011 -12.121   5.866  1.00 33.68     0.199 C 
INPUT-LIGAND-PDBQT: BRANCH  71  72
INPUT-LIGAND-PDBQT: ATOM     72  OG  SER P   8      15.261 -12.410   6.467  1.00 33.39    -0.398 OA
INPUT-LIGAND-PDBQT: ATOM     73  HG  SER P   8      15.960 -11.879   6.104  1.00  0.00     0.209 HD
INPUT-LIGAND-PDBQT: ENDBRANCH  71  72
INPUT-LIGAND-PDBQT: ENDBRANCH  54  71
INPUT-LIGAND-PDBQT: ENDBRANCH  52  54
INPUT-LIGAND-PDBQT: ENDBRANCH  42  50
INPUT-LIGAND-PDBQT: ENDBRANCH  40  42
INPUT-LIGAND-PDBQT: ENDBRANCH   1  38
INPUT-LIGAND-PDBQT: TORSDOF 26
________________________________________________________________________________

Total charge on ligand                               =	+0.003 e
REMARK  26 active torsions:
REMARK  status: ('A' for Active; 'I' for Inactive)
REMARK    1  A    between atoms: N_1  and  CA_5 
REMARK    2  A    between atoms: CA_5  and  C_6 
REMARK       I    between atoms: C_6  and  N_8 
REMARK    3  A    between atoms: N_8  and  CA_10 
REMARK    4  A    between atoms: CA_10  and  CB_13 
REMARK    5  A    between atoms: CA_10  and  C_11 
REMARK       I    between atoms: C_11  and  N_19 
REMARK    6  A    between atoms: CB_13  and  CG_14 
REMARK       I    between atoms: CG_14  and  ND2_15 
REMARK    7  A    between atoms: N_19  and  CA_21 
REMARK    8  A    between atoms: CA_21  and  CB_24 
REMARK    9  A    between atoms: CA_21  and  C_22 
REMARK       I    between atoms: C_22  and  N_31 
REMARK   10  A    between atoms: CB_24  and  CG_25 
REMARK   11  A    between atoms: N_31  and  CA_33 
REMARK   12  A    between atoms: CA_33  and  CB_36 
REMARK   13  A    between atoms: CA_33  and  C_34 
REMARK       I    between atoms: C_34  and  N_40 
REMARK   14  A    between atoms: CB_36  and  CG_37 
REMARK   15  A    between atoms: N_40  and  CA_42 
REMARK   16  A    between atoms: CA_42  and  CB_45 
REMARK   17  A    between atoms: CA_42  and  C_43 
REMARK       I    between atoms: C_43  and  N_52 
REMARK   18  A    between atoms: CB_45  and  CG_46 
REMARK   19  A    between atoms: CG_46  and  CD_47 
REMARK       I    between atoms: CD_47  and  NE2_48 
REMARK   20  A    between atoms: N_52  and  CA_54 
REMARK   21  A    between atoms: CA_54  and  C_55 
REMARK   22  A    between atoms: CA_54  and  CB_57 
REMARK       I    between atoms: C_55  and  N_60 
REMARK   23  A    between atoms: CB_57  and  OG_58 
REMARK   24  A    between atoms: N_60  and  CA_62 
REMARK   25  A    between atoms: CA_62  and  C_63 
REMARK       I    between atoms: C_63  and  N_66 
REMARK   26  A    between atoms: CA_67  and  C_68 


Number of Rotatable Bonds in Small Molecule =	26 torsions
Number of atoms in ligand:  73

Number of non-hydrogen atoms in ligand:  59

Number of vibrational degrees of freedom of ligand:  213


Number of torsional degrees of freedom = 26
Estimated loss of torsional free energy upon binding = +7.7558 kcal/mol


DPF> about 9.642 -14.316 1.762            # small molecule center

Small molecule center of rotation =	(+9.642, -14.316, +1.762)

DPF> tran0 random                         # initial coordinates/A or random

Initial translation =			(10.649, -12.602, -0.783) Angstroms
DPF> quaternion0 random                   # initial orientation

Each run will begin with a new, random initial orientation.
Initial quaternion,  (x,y,z,w) =	( 0.189, -0.487, -0.381, 0.763 ),
DPF> dihe0 random                         # initial dihedrals (relative) or random

DPF> torsdof 26                            # torsional degrees of freedom

Number of torsional degrees of freedom = 26
Free energy coefficient for torsional degrees of freedom = 0.2983, the factory default value.

Estimated loss of torsional free energy upon binding = +7.7558 kcal/mol

DPF> rmstol 2.0                           # cluster_tolerance/A

Maximum RMS tolerance for conformational cluster analysis = 2.00 Angstroms
DPF> extnrg 1000.0                        # external grid energy

External grid energy (beyond grid map walls) = 1000.00

DPF> e0max 0.0 10000                      # max initial energy; max number of retries

Using user-specified maximum number of retries for simanneal initialization, 10000 retries.
If the simanneal initial energy is greater than e0max, 0.000,
then a new, random initial state will be created.

DPF> ga_pop_size 150                      # number of individuals in population

A population of 150 individuals will be used
DPF> ga_num_evals 2500000                 # maximum number of energy evaluations

There will be at most 2500000 function evaluations used.
DPF> ga_num_generations 27000             # maximum number of generations

The GA will run for at most 27000 generations.
DPF> ga_elitism 1                         # number of top individuals to survive to next generation

The 1 best will be preserved each GA generation.
DPF> ga_mutation_rate 0.02                # rate of gene mutation

The mutation rate is 0.020000.
DPF> ga_crossover_rate 0.8                # rate of crossover

The crossover rate is 0.800000.
DPF> ga_window_size 10                    # 

The GA's selection window is 10 generations.
DPF> ga_cauchy_alpha 0.0                  # Alpha parameter of Cauchy distribution

The alpha parameter (for the Cauchy distribution) is being set to 0.000000.
DPF> ga_cauchy_beta 1.0                   # Beta parameter Cauchy distribution

The beta parameter (for the Cauchy distribution) is being set to 1.000000.
DPF> set_ga                               # set the above parameters for GA or LGA

DPF> sw_max_its 300                       # iterations of Solis & Wets local search

Solis & Wets algorithms will perform at most 300 iterations.
DPF> sw_max_succ 4                        # consecutive successes before changing rho

Solis & Wets algorithms expand rho every 4 in a row successes.
DPF> sw_max_fail 4                        # consecutive failures before changing rho

Solis & Wets algorithms contract rho every 4 in a row failures.
DPF> sw_rho 1.0                           # size of local search space to sample

rho is set to 1.000000.
DPF> sw_lb_rho 0.01                       # lower bound on rho

rho will never get smaller than 0.010000.
DPF> ls_search_freq 0.06                  # probability of performing local search on individual

Local search will be performed with frequency 0.060000.
DPF> set_psw1                             # set the above pseudo-Solis & Wets parameters

Creating a new Local Search object using the pseudo-Solis-Wets algorithm (pSW1) with the current settings.

DPF> unbound_model bound                  # state of unbound ligand

DPF> ga_run 10                            # do this many hybrid GA-LS runs

centering ligand on specified point: 9.642 -14.316 1.762
Furthest true ligand atom from "about" center is 12.796 Angstroms (maxrad).
Number of requested GA dockings = 10 runs
Unbound model to be used is 'same as bound' [AutoDock 4.2 default].

	BEGINNING GENETIC ALGORITHM DOCKING 1 of 10
Run: 1 Seed: 1881329018 1256123806 [ Run 1 of 10 GA/GALS ]
Beginning LAMARCKIAN GENETIC ALGORITHM (LGA), with a maximum of 2500000 energy evaluations.

Final-Value: -17.801


	FINAL GENETIC ALGORITHM DOCKED STATE
	_______________________________________________


Detailed state:  trans 12.140 -13.850 2.671 quatxyzw -0.456165 -0.338951 -0.803367 -0.177842 center 9.642 -14.316 1.762 ntor 26 68.6087 67.4978 -177.1592 -26.0704 -48.8369 28.1053 94.9422 -12.3805 169.9670 -152.2507 179.9902 -161.6773 -33.6009 -178.0789 103.2012 -128.5656 -136.7564 31.5374 104.2401 -17.3624 -11.5424 -89.9005 -179.7421 -159.2075 -165.8820 132.1054
State:	 12.140 -13.850   2.671  -0.464 -0.344 -0.816 -159.512     68.61   67.50 -177.16  -26.07  -48.84   28.11   94.94  -12.38  169.97 -152.25  179.99 -161.68  -33.60 -178.08  103.20 -128.57 -136.76   31.54  104.24  -17.36  -11.54  -89.90 -179.74 -159.21 -165.88  132.11

DOCKED: MODEL        1
DOCKED: USER    Run = 1
DOCKED: USER    DPF = dock.dpf
DOCKED: USER  
DOCKED: USER    Estimated Free Energy of Binding    =   -6.48 kcal/mol  [=(1)+(2)+(3)-(4)]
DOCKED: USER    Estimated Inhibition Constant, Ki   =   17.80 uM (micromolar)  [Temperature = 298.15 K]
DOCKED: USER    
DOCKED: USER    (1) Final Intermolecular Energy     =  -14.24 kcal/mol
DOCKED: USER        vdW + Hbond + desolv Energy     =  -14.06 kcal/mol
DOCKED: USER        Electrostatic Energy            =   -0.18 kcal/mol
DOCKED: USER    (2) Final Total Internal Energy     =   -3.57 kcal/mol
DOCKED: USER    (3) Torsional Free Energy           =   +7.76 kcal/mol
DOCKED: USER    (4) Unbound System's Energy  [=(2)] =   -3.57 kcal/mol
DOCKED: USER    
DOCKED: USER    
DOCKED: USER    NEWDPF move lig3d3t.pdbqt
DOCKED: USER    NEWDPF about 9.642000 -14.316000 1.762000
DOCKED: USER    NEWDPF tran0 12.139880 -13.850442 2.671235
DOCKED: USER    NEWDPF quaternion0 -0.456165 -0.338951 -0.803367 -0.177842
DOCKED: USER    NEWDPF axisangle0 -0.463554 -0.344442 -0.816381 -159.511793
DOCKED: USER    NEWDPF quat0 -0.463554 -0.344442 -0.816381 -159.511793
DOCKED: USER    NEWDPF dihe0 68.61 67.50 -177.16 -26.07 -48.84 28.11 94.94 -12.38 169.97 -152.25 179.99 -161.68 -33.60 -178.08 103.20 -128.57 -136.76 31.54 104.24 -17.36 -11.54 -89.90 -179.74 -159.21 -165.88 132.11 
DOCKED: USER  keepresnum = 1 
DOCKED: USER  
DOCKED: REMARK  26 active torsions:
DOCKED: REMARK  status: ('A' for Active; 'I' for Inactive)
DOCKED: REMARK    1  A    between atoms: N_1  and  CA_5 
DOCKED: REMARK    2  A    between atoms: CA_5  and  C_6 
DOCKED: REMARK       I    between atoms: C_6  and  N_8 
DOCKED: REMARK    3  A    between atoms: N_8  and  CA_10 
DOCKED: REMARK    4  A    between atoms: CA_10  and  CB_13 
DOCKED: REMARK    5  A    between atoms: CA_10  and  C_11 
DOCKED: REMARK       I    between atoms: C_11  and  N_19 
DOCKED: REMARK    6  A    between atoms: CB_13  and  CG_14 
DOCKED: REMARK       I    between atoms: CG_14  and  ND2_15 
DOCKED: REMARK    7  A    between atoms: N_19  and  CA_21 
DOCKED: REMARK    8  A    between atoms: CA_21  and  CB_24 
DOCKED: REMARK    9  A    between atoms: CA_21  and  C_22 
DOCKED: REMARK       I    between atoms: C_22  and  N_31 
DOCKED: REMARK   10  A    between atoms: CB_24  and  CG_25 
DOCKED: REMARK   11  A    between atoms: N_31  and  CA_33 
DOCKED: REMARK   12  A    between atoms: CA_33  and  CB_36 
DOCKED: REMARK   13  A    between atoms: CA_33  and  C_34 
DOCKED: REMARK       I    between atoms: C_34  and  N_40 
DOCKED: REMARK   14  A    between atoms: CB_36  and  CG_37 
DOCKED: REMARK   15  A    between atoms: N_40  and  CA_42 
DOCKED: REMARK   16  A    between atoms: CA_42  and  CB_45 
DOCKED: REMARK   17  A    between atoms: CA_42  and  C_43 
DOCKED: REMARK       I    between atoms: C_43  and  N_52 
DOCKED: REMARK   18  A    between atoms: CB_45  and  CG_46 
DOCKED: REMARK   19  A    between atoms: CG_46  and  CD_47 
DOCKED: REMARK       I    between atoms: CD_47  and  NE2_48 
DOCKED: REMARK   20  A    between atoms: N_52  and  CA_54 
DOCKED: REMARK   21  A    between atoms: CA_54  and  C_55 
DOCKED: REMARK   22  A    between atoms: CA_54  and  CB_57 
DOCKED: REMARK       I    between atoms: C_55  and  N_60 
DOCKED: REMARK   23  A    between atoms: CB_57  and  OG_58 
DOCKED: REMARK   24  A    between atoms: N_60  and  CA_62 
DOCKED: REMARK   25  A    between atoms: CA_62  and  C_63 
DOCKED: REMARK       I    between atoms: C_63  and  N_66 
DOCKED: REMARK   26  A    between atoms: CA_67  and  C_68 
DOCKED: USER                              x       y       z     vdW  Elec       q    Type
DOCKED: USER                           _______ _______ _______ _____ _____    ______ ____
DOCKED: ROOT
DOCKED: ATOM      1  CA  LEU P   6      10.058 -14.000   2.815 -0.23 -0.02    +0.177 C 
DOCKED: ENDROOT
DOCKED: BRANCH   1   2
DOCKED: ATOM      2  N   LEU P   6       9.798 -14.367   1.437 -0.13 -0.02    -0.346 N 
DOCKED: ATOM      3  C   PHE P   5       9.117 -15.467   1.147 -0.24 +0.01    +0.241 C 
DOCKED: ATOM      4  O   PHE P   5       8.951 -16.382   1.957 -0.26 +0.01    -0.271 OA
DOCKED: ATOM      5  HN  LEU P   6      10.143 -13.773   0.683 +0.09 +0.03    +0.163 HD
DOCKED: BRANCH   3   6
DOCKED: ATOM      6  CA  PHE P   5       8.523 -15.545  -0.259 -0.27 +0.02    +0.180 C 
DOCKED: BRANCH   6   7
DOCKED: ATOM      7  N   PHE P   5       7.062 -15.551  -0.310 -0.15 -0.07    -0.346 N 
DOCKED: ATOM      8  C   ASN P   4       6.401 -16.626  -0.728 -0.23 +0.01    +0.241 C 
DOCKED: ATOM      9  O   ASN P   4       6.965 -17.695  -0.965 -0.20 +0.02    -0.271 OA
DOCKED: ATOM     10  HN  PHE P   5       6.544 -14.722  -0.021 +0.16 +0.12    +0.163 HD
DOCKED: BRANCH   8  11
DOCKED: ATOM     11  CA  ASN P   4       4.891 -16.473  -0.916 -0.22 +0.02    +0.185 C 
DOCKED: BRANCH  11  12
DOCKED: ATOM     12  N   ASN P   4       4.497 -16.818  -2.281 -0.11 -0.01    -0.346 N 
DOCKED: ATOM     13  C   GLY P   3       5.371 -16.821  -3.284 -0.15 -0.04    +0.243 C 
DOCKED: ATOM     14  O   GLY P   3       6.541 -16.466  -3.147 -0.19 +0.05    -0.272 OA
DOCKED: ATOM     15  HN  ASN P   4       3.525 -17.064  -2.469 +0.08 +0.01    +0.163 HD
DOCKED: BRANCH  13  16
DOCKED: ATOM     16  CA  GLY P   3       4.856 -17.279  -4.634 -0.09 -0.09    +0.332 C 
DOCKED: BRANCH  16  17
DOCKED: ATOM     17  N   GLY P   3       5.466 -16.458  -5.713 -0.14 +0.03    -0.071 N 
DOCKED: ATOM     18  HN3 GLY P   3       4.816 -15.763  -6.081 -0.25 -0.12    +0.274 HD
DOCKED: ATOM     19  HN2 GLY P   3       6.176 -15.820  -5.353 -0.36 -0.16    +0.274 HD
DOCKED: ATOM     20  HN1 GLY P   3       5.833 -17.066  -6.446 +0.14 -0.14    +0.274 HD
DOCKED: ENDBRANCH  16  17
DOCKED: ENDBRANCH  13  16
DOCKED: ENDBRANCH  11  12
DOCKED: BRANCH  11  21
DOCKED: ATOM     21  CB  ASN P   4       4.119 -17.325   0.101 -0.52 +0.00    +0.137 C 
DOCKED: BRANCH  21  22
DOCKED: ATOM     22  CG  ASN P   4       4.938 -17.630   1.353 -0.41 -0.01    +0.217 C 
DOCKED: ATOM     23  OD1 ASN P   4       5.985 -18.277   1.283 -0.18 -0.01    -0.274 OA
DOCKED: ATOM     24  ND2 ASN P   4       4.459 -17.162   2.505 -0.08 +0.06    -0.370 N 
DOCKED: ATOM     25 2HD2 ASN P   4       3.593 -16.627   2.562 -0.35 -0.07    +0.159 HD
DOCKED: ATOM     26 1HD2 ASN P   4       5.006 -17.366   3.342 +0.07 -0.01    +0.159 HD
DOCKED: ENDBRANCH  21  22
DOCKED: ENDBRANCH  11  21
DOCKED: ENDBRANCH   8  11
DOCKED: ENDBRANCH   6   7
DOCKED: BRANCH   6  27
DOCKED: ATOM     27  CB  PHE P   5       9.108 -14.459  -1.173 -0.40 +0.01    +0.073 C 
DOCKED: BRANCH  27  28
DOCKED: ATOM     28  CG  PHE P   5       9.263 -14.895  -2.601 -0.32 -0.00    -0.056 A 
DOCKED: ATOM     29  CD1 PHE P   5       8.289 -14.585  -3.544 -0.29 -0.00    +0.007 A 
DOCKED: ATOM     30  CE1 PHE P   5       8.434 -14.973  -4.874 -0.37 -0.00    +0.001 A 
DOCKED: ATOM     31  CZ  PHE P   5       9.562 -15.680  -5.276 -0.43 -0.00    +0.000 A 
DOCKED: ATOM     32  CE2 PHE P   5      10.545 -16.001  -4.337 -0.33 -0.00    +0.001 A 
DOCKED: ATOM     33  CD2 PHE P   5      10.390 -15.606  -3.006 -0.39 +0.00    +0.007 A 
DOCKED: ENDBRANCH  27  28
DOCKED: ENDBRANCH   6  27
DOCKED: ENDBRANCH   3   6
DOCKED: ENDBRANCH   1   2
DOCKED: BRANCH   1  34
DOCKED: ATOM     34  CB  LEU P   6       9.987 -15.232   3.720 -0.41 -0.01    +0.038 C 
DOCKED: BRANCH  34  35
DOCKED: ATOM     35  CG  LEU P   6       9.939 -14.976   5.231 -0.45 +0.01    -0.020 C 
DOCKED: ATOM     36  CD2 LEU P   6      11.299 -15.124   5.903 -0.44 -0.00    +0.009 C 
DOCKED: ATOM     37  CD1 LEU P   6       8.915 -15.870   5.878 -0.55 -0.00    +0.009 C 
DOCKED: ENDBRANCH  34  35
DOCKED: ENDBRANCH   1  34
DOCKED: BRANCH   1  38
DOCKED: ATOM     38  C   LEU P   6      11.458 -13.402   2.892 -0.19 -0.04    +0.241 C 
DOCKED: ATOM     39  O   LEU P   6      11.625 -12.189   2.899 -0.20 +0.04    -0.271 OA
DOCKED: ATOM     40  N   GLN P   7      12.465 -14.259   2.940 -0.07 +0.09    -0.346 N 
DOCKED: ATOM     41  HN  GLN P   7      12.263 -15.255   3.017 -0.44 -0.08    +0.163 HD
DOCKED: BRANCH  40  42
DOCKED: ATOM     42  CA  GLN P   7      13.843 -13.825   2.887 -0.22 -0.02    +0.177 C 
DOCKED: BRANCH  42  43
DOCKED: ATOM     43  CB  GLN P   7      14.265 -13.604   1.437 -0.21 +0.00    +0.044 C 
DOCKED: BRANCH  43  44
DOCKED: ATOM     44  CG  GLN P   7      13.148 -13.676   0.425 -0.38 -0.00    +0.105 C 
DOCKED: BRANCH  44  45
DOCKED: ATOM     45  CD  GLN P   7      12.846 -12.349  -0.195 -0.46 +0.01    +0.215 C 
DOCKED: ATOM     46  OE1 GLN P   7      12.537 -12.259  -1.378 -0.42 -0.01    -0.274 OA
DOCKED: ATOM     47  NE2 GLN P   7      12.932 -11.303   0.600 -0.27 -0.04    -0.370 N 
DOCKED: ATOM     48 2HE2 GLN P   7      12.726 -10.398   0.176 +0.10 +0.03    +0.159 HD
DOCKED: ATOM     49 1HE2 GLN P   7      13.189 -11.377   1.584 +0.09 +0.01    +0.159 HD
DOCKED: ENDBRANCH  44  45
DOCKED: ENDBRANCH  43  44
DOCKED: ENDBRANCH  42  43
DOCKED: BRANCH  42  50
DOCKED: ATOM     50  C   GLN P   7      14.027 -12.561   3.728 -0.15 -0.01    +0.241 C 
DOCKED: ATOM     51  O   GLN P   7      14.903 -11.747   3.475 -0.18 -0.06    -0.271 OA
DOCKED: ATOM     52  N   SER P   8      13.163 -12.380   4.712 -0.05 +0.09    -0.344 N 
DOCKED: ATOM     53  HN  SER P   8      12.355 -12.999   4.791 +0.06 -0.06    +0.163 HD
DOCKED: BRANCH  52  54
DOCKED: ATOM     54  CA  SER P   8      13.343 -11.323   5.676 -0.12 -0.05    +0.200 C 
DOCKED: BRANCH  54  55
DOCKED: ATOM     55  C   SER P   8      13.074 -11.992   7.012 -0.12 -0.14    +0.243 C 
DOCKED: ATOM     56  O   SER P   8      13.993 -12.453   7.688 -0.02 +0.29    -0.271 OA
DOCKED: ATOM     57  N   ARG P   9      11.819 -12.032   7.417 -0.13 +0.18    -0.346 N 
DOCKED: ATOM     58  HN  ARG P   9      11.114 -11.469   6.941 -0.17 -0.05    +0.163 HD
DOCKED: BRANCH  57  59
DOCKED: ATOM     59  CA  ARG P   9      11.443 -12.865   8.529 -0.30 -0.15    +0.172 C 
DOCKED: ATOM     60  CB  ARG P   9      12.548 -13.842   8.854 +0.00 -0.06    +0.042 C 
DOCKED: BRANCH  59  61
DOCKED: ATOM     61  C   ARG P   9      11.191 -11.922   9.693 -0.22 -0.17    +0.243 C 
DOCKED: ATOM     62  N   PRO P  10      11.825 -10.750   9.663 -0.11 +0.14    -0.336 N 
DOCKED: ATOM     63  CD  PRO P  10      13.197 -10.543   9.188 -0.08 -0.05    +0.127 C 
DOCKED: ATOM     64  CA  PRO P  10      11.367  -9.565  10.365 -0.22 -0.07    +0.188 C 
DOCKED: ATOM     65  CG  PRO P  10      13.758  -9.745  10.334 -0.05 -0.01    +0.022 C 
DOCKED: ATOM     66  CB  PRO P  10      12.662  -9.135  11.077 -0.11 -0.01    +0.038 C 
DOCKED: ATOM     67  O   ARG P   9      10.523 -12.286  10.663 -0.12 +0.26    -0.271 OA
DOCKED: BRANCH  64  68
DOCKED: ATOM     68  C   PRO P  10      10.916  -8.487   9.371 -0.31 -0.04    +0.196 C 
DOCKED: ATOM     69  O   PRO P  10      10.566  -7.356   9.748 -0.04 +0.14    -0.646 OA
DOCKED: ATOM     70  OXT PRO P  10      10.893  -8.715   8.155 -0.15 +0.06    -0.646 OA
DOCKED: ENDBRANCH  64  68
DOCKED: ENDBRANCH  59  61
DOCKED: ENDBRANCH  57  59
DOCKED: ENDBRANCH  54  55
DOCKED: BRANCH  54  71
DOCKED: ATOM     71  CB  SER P   8      12.342 -10.196   5.424 -0.15 -0.04    +0.199 C 
DOCKED: BRANCH  71  72
DOCKED: ATOM     72  OG  SER P   8      12.585  -9.076   6.257 -0.11 +0.04    -0.398 OA
DOCKED: ATOM     73  HG  SER P   8      11.898  -8.959   6.902 +0.08 -0.02    +0.209 HD
DOCKED: ENDBRANCH  71  72
DOCKED: ENDBRANCH  54  71
DOCKED: ENDBRANCH  52  54
DOCKED: ENDBRANCH  42  50
DOCKED: ENDBRANCH  40  42
DOCKED: ENDBRANCH   1  38
DOCKED: TORSDOF 26
DOCKED: TER
DOCKED: ENDMDL
________________________________________________________________________________


	BEGINNING GENETIC ALGORITHM DOCKING 2 of 10
Run: 2 Seed: 1274953081 1023718049 [ Run 2 of 10 GA/GALS ]
Beginning LAMARCKIAN GENETIC ALGORITHM (LGA), with a maximum of 2500000 energy evaluations.

Final-Value: -9.010


	FINAL GENETIC ALGORITHM DOCKED STATE
	_______________________________________________


Detailed state:  trans 11.697 -14.328 0.350 quatxyzw -0.431676 0.622557 -0.036233 -0.651741 center 9.642 -14.316 1.762 ntor 26 -157.5575 68.2549 134.4583 -154.1060 180.0000 -32.2916 179.5542 178.3557 -121.2686 -13.8076 -157.6402 153.9909 -64.9011 -103.3024 177.4761 -146.2112 -125.5429 -10.9697 45.3683 151.5600 156.2845 -144.7237 -138.2798 88.4656 -109.5272 -50.5725
State:	 11.697 -14.328   0.350  -0.569  0.821 -0.048 -98.654   -157.56   68.25  134.46 -154.11  180.00  -32.29  179.55  178.36 -121.27  -13.81 -157.64  153.99  -64.90 -103.30  177.48 -146.21 -125.54  -10.97   45.37  151.56  156.28 -144.72 -138.28   88.47 -109.53  -50.57

DOCKED: MODEL        2
DOCKED: USER    Run = 2
DOCKED: USER    DPF = dock.dpf
DOCKED: USER  
DOCKED: USER    Estimated Free Energy of Binding    =   -3.72 kcal/mol  [=(1)+(2)+(3)-(4)]
DOCKED: USER    Estimated Inhibition Constant, Ki   =    1.88 mM (millimolar)  [Temperature = 298.15 K]
DOCKED: USER    
DOCKED: USER    (1) Final Intermolecular Energy     =  -11.48 kcal/mol
DOCKED: USER        vdW + Hbond + desolv Energy     =  -11.33 kcal/mol
DOCKED: USER        Electrostatic Energy            =   -0.14 kcal/mol
DOCKED: USER    (2) Final Total Internal Energy     =   +2.46 kcal/mol
DOCKED: USER    (3) Torsional Free Energy           =   +7.76 kcal/mol
DOCKED: USER    (4) Unbound System's Energy  [=(2)] =   +2.46 kcal/mol
DOCKED: USER    
DOCKED: USER    
DOCKED: USER    NEWDPF move lig3d3t.pdbqt
DOCKED: USER    NEWDPF about 9.642000 -14.316000 1.762000
DOCKED: USER    NEWDPF tran0 11.697236 -14.328184 0.349963
DOCKED: USER    NEWDPF quaternion0 -0.431676 0.622557 -0.036233 -0.651741
DOCKED: USER    NEWDPF axisangle0 -0.569162 0.820836 -0.047773 -98.654084
DOCKED: USER    NEWDPF quat0 -0.569162 0.820836 -0.047773 -98.654084
DOCKED: USER    NEWDPF dihe0 -157.56 68.25 134.46 -154.11 180.00 -32.29 179.55 178.36 -121.27 -13.81 -157.64 153.99 -64.90 -103.30 177.48 -146.21 -125.54 -10.97 45.37 151.56 156.28 -144.72 -138.28 88.47 -109.53 -50.57 
DOCKED: USER  keepresnum = 1 
DOCKED: USER  
DOCKED: REMARK  26 active torsions:
DOCKED: REMARK  status: ('A' for Active; 'I' for Inactive)
DOCKED: REMARK    1  A    between atoms: N_1  and  CA_5 
DOCKED: REMARK    2  A    between atoms: CA_5  and  C_6 
DOCKED: REMARK       I    between atoms: C_6  and  N_8 
DOCKED: REMARK    3  A    between atoms: N_8  and  CA_10 
DOCKED: REMARK    4  A    between atoms: CA_10  and  CB_13 
DOCKED: REMARK    5  A    between atoms: CA_10  and  C_11 
DOCKED: REMARK       I    between atoms: C_11  and  N_19 
DOCKED: REMARK    6  A    between atoms: CB_13  and  CG_14 
DOCKED: REMARK       I    between atoms: CG_14  and  ND2_15 
DOCKED: REMARK    7  A    between atoms: N_19  and  CA_21 
DOCKED: REMARK    8  A    between atoms: CA_21  and  CB_24 
DOCKED: REMARK    9  A    between atoms: CA_21  and  C_22 
DOCKED: REMARK       I    between atoms: C_22  and  N_31 
DOCKED: REMARK   10  A    between atoms: CB_24  and  CG_25 
DOCKED: REMARK   11  A    between atoms: N_31  and  CA_33 
DOCKED: REMARK   12  A    between atoms: CA_33  and  CB_36 
DOCKED: REMARK   13  A    between atoms: CA_33  and  C_34 
DOCKED: REMARK       I    between atoms: C_34  and  N_40 
DOCKED: REMARK   14  A    between atoms: CB_36  and  CG_37 
DOCKED: REMARK   15  A    between atoms: N_40  and  CA_42 
DOCKED: REMARK   16  A    between atoms: CA_42  and  CB_45 
DOCKED: REMARK   17  A    between atoms: CA_42  and  C_43 
DOCKED: REMARK       I    between atoms: C_43  and  N_52 
DOCKED: REMARK   18  A    between atoms: CB_45  and  CG_46 
DOCKED: REMARK   19  A    between atoms: CG_46  and  CD_47 
DOCKED: REMARK       I    between atoms: CD_47  and  NE2_48 
DOCKED: REMARK   20  A    between atoms: N_52  and  CA_54 
DOCKED: REMARK   21  A    between atoms: CA_54  and  C_55 
DOCKED: REMARK   22  A    between atoms: CA_54  and  CB_57 
DOCKED: REMARK       I    between atoms: C_55  and  N_60 
DOCKED: REMARK   23  A    between atoms: CB_57  and  OG_58 
DOCKED: REMARK   24  A    between atoms: N_60  and  CA_62 
DOCKED: REMARK   25  A    between atoms: CA_62  and  C_63 
DOCKED: REMARK       I    between atoms: C_63  and  N_66 
DOCKED: REMARK   26  A    between atoms: CA_67  and  C_68 
DOCKED: USER                              x       y       z     vdW  Elec       q    Type
DOCKED: USER                           _______ _______ _______ _____ _____    ______ ____
DOCKED: ROOT
DOCKED: ATOM      1  CA  LEU P   6      11.372 -16.393   0.263 +0.15 -0.01    +0.177 C 
DOCKED: ENDROOT
DOCKED: BRANCH   1   2
DOCKED: ATOM      2  N   LEU P   6      10.582 -16.512   1.473 -0.08 +0.08    -0.346 N 
DOCKED: ATOM      3  C   PHE P   5      10.100 -15.432   2.074 -0.24 -0.03    +0.241 C 
DOCKED: ATOM      4  O   PHE P   5      10.535 -14.299   1.859 -0.19 +0.01    -0.271 OA
DOCKED: ATOM      5  HN  LEU P   6      10.395 -17.434   1.866 +0.03 -0.05    +0.163 HD
DOCKED: BRANCH   3   6
DOCKED: ATOM      6  CA  PHE P   5       8.948 -15.660   3.052 -0.32 -0.02    +0.180 C 
DOCKED: BRANCH   6   7
DOCKED: ATOM      7  N   PHE P   5       7.665 -15.975   2.428 -0.04 -0.01    -0.346 N 
DOCKED: ATOM      8  C   ASN P   4       7.550 -16.999   1.587 -0.27 +0.01    +0.241 C 
DOCKED: ATOM      9  O   ASN P   4       8.467 -17.798   1.395 -0.36 -0.05    -0.271 OA
DOCKED: ATOM     10  HN  PHE P   5       6.847 -15.403   2.639 +0.28 +0.01    +0.163 HD
DOCKED: BRANCH   8  11
DOCKED: ATOM     11  CA  ASN P   4       6.217 -17.137   0.851 -0.36 +0.01    +0.185 C 
DOCKED: BRANCH  11  12
DOCKED: ATOM     12  N   ASN P   4       6.161 -16.237  -0.300 -0.15 -0.05    -0.346 N 
DOCKED: ATOM     13  C   GLY P   3       7.105 -16.239  -1.239 -0.22 +0.01    +0.243 C 
DOCKED: ATOM     14  O   GLY P   3       8.115 -16.938  -1.165 -0.19 +0.02    -0.272 OA
DOCKED: ATOM     15  HN  ASN P   4       5.377 -15.591  -0.387 +0.09 +0.05    +0.163 HD
DOCKED: BRANCH  13  16
DOCKED: ATOM     16  CA  GLY P   3       6.887 -15.319  -2.424 +0.23 +0.00    +0.332 C 
DOCKED: BRANCH  16  17
DOCKED: ATOM     17  N   GLY P   3       7.156 -16.053  -3.688 -0.28 +0.02    -0.071 N 
DOCKED: ATOM     18  HN3 GLY P   3       6.366 -16.008  -4.333 -0.34 -0.12    +0.274 HD
DOCKED: ATOM     19  HN2 GLY P   3       7.846 -15.576  -4.268 +0.12 -0.06    +0.274 HD
DOCKED: ATOM     20  HN1 GLY P   3       7.427 -17.014  -3.481 +0.12 -0.06    +0.274 HD
DOCKED: ENDBRANCH  16  17
DOCKED: ENDBRANCH  13  16
DOCKED: ENDBRANCH  11  12
DOCKED: BRANCH  11  21
DOCKED: ATOM     21  CB  ASN P   4       5.976 -18.588   0.414 -0.34 +0.01    +0.137 C 
DOCKED: BRANCH  21  22
DOCKED: ATOM     22  CG  ASN P   4       4.513 -18.865   0.075 -0.37 +0.01    +0.217 C 
DOCKED: ATOM     23  OD1 ASN P   4       4.199 -19.394  -0.993 -0.30 -0.06    -0.274 OA
DOCKED: ATOM     24  ND2 ASN P   4       3.614 -18.506   0.989 -0.20 +0.04    -0.370 N 
DOCKED: ATOM     25 2HD2 ASN P   4       3.874 -18.068   1.873 -0.12 -0.04    +0.159 HD
DOCKED: ATOM     26 1HD2 ASN P   4       2.636 -18.690   0.764 -0.09 -0.00    +0.159 HD
DOCKED: ENDBRANCH  21  22
DOCKED: ENDBRANCH  11  21
DOCKED: ENDBRANCH   8  11
DOCKED: ENDBRANCH   6   7
DOCKED: BRANCH   6  27
DOCKED: ATOM     27  CB  PHE P   5       9.320 -16.698   4.119 -0.00 -0.01    +0.073 C 
DOCKED: BRANCH  27  28
DOCKED: ATOM     28  CG  PHE P   5       9.398 -16.132   5.507 -0.39 +0.01    -0.056 A 
DOCKED: ATOM     29  CD1 PHE P   5       8.559 -16.604   6.512 -0.48 -0.00    +0.007 A 
DOCKED: ATOM     30  CE1 PHE P   5       8.637 -16.094   7.806 -0.58 -0.00    +0.001 A 
DOCKED: ATOM     31  CZ  PHE P   5       9.560 -15.099   8.109 -0.22 -0.00    +0.000 A 
DOCKED: ATOM     32  CE2 PHE P   5      10.404 -14.613   7.108 -0.49 -0.00    +0.001 A 
DOCKED: ATOM     33  CD2 PHE P   5      10.319 -15.134   5.814 -0.43 -0.00    +0.007 A 
DOCKED: ENDBRANCH  27  28
DOCKED: ENDBRANCH   6  27
DOCKED: ENDBRANCH   3   6
DOCKED: ENDBRANCH   1   2
DOCKED: BRANCH   1  34
DOCKED: ATOM     34  CB  LEU P   6      10.469 -16.423  -0.972 +0.00 +0.00    +0.038 C 
DOCKED: BRANCH  34  35
DOCKED: ATOM     35  CG  LEU P   6      10.713 -15.340  -2.031 -0.33 -0.00    -0.020 C 
DOCKED: ATOM     36  CD2 LEU P   6       9.761 -14.158  -1.903 -0.19 +0.00    +0.009 C 
DOCKED: ATOM     37  CD1 LEU P   6      10.653 -15.939  -3.411 -0.41 +0.00    +0.009 C 
DOCKED: ENDBRANCH  34  35
DOCKED: ENDBRANCH   1  34
DOCKED: BRANCH   1  38
DOCKED: ATOM     38  C   LEU P   6      12.115 -15.062   0.309 -0.26 -0.02    +0.241 C 
DOCKED: ATOM     39  O   LEU P   6      11.573 -14.027  -0.058 -0.25 -0.01    -0.271 OA
DOCKED: ATOM     40  N   GLN P   7      13.361 -15.096   0.751 -0.15 +0.05    -0.346 N 
DOCKED: ATOM     41  HN  GLN P   7      13.731 -15.970   1.121 -0.44 -0.06    +0.163 HD
DOCKED: BRANCH  40  42
DOCKED: ATOM     42  CA  GLN P   7      14.214 -13.929   0.724 -0.08 +0.00    +0.177 C 
DOCKED: BRANCH  42  43
DOCKED: ATOM     43  CB  GLN P   7      13.773 -12.984  -0.391 -0.04 +0.00    +0.044 C 
DOCKED: BRANCH  43  44
DOCKED: ATOM     44  CG  GLN P   7      12.638 -12.057  -0.034 -0.56 +0.01    +0.105 C 
DOCKED: BRANCH  44  45
DOCKED: ATOM     45  CD  GLN P   7      13.022 -11.049   1.003 -0.26 +0.02    +0.215 C 
DOCKED: ATOM     46  OE1 GLN P   7      12.201 -10.628   1.810 -0.32 -0.01    -0.274 OA
DOCKED: ATOM     47  NE2 GLN P   7      14.277 -10.653   0.992 +0.20 -0.06    -0.370 N 
DOCKED: ATOM     48 2HE2 GLN P   7      14.538  -9.966   1.698 +0.06 +0.03    +0.159 HD
DOCKED: ATOM     49 1HE2 GLN P   7      14.960 -11.003   0.320 +0.29 +0.03    +0.159 HD
DOCKED: ENDBRANCH  44  45
DOCKED: ENDBRANCH  43  44
DOCKED: ENDBRANCH  42  43
DOCKED: BRANCH  42  50
DOCKED: ATOM     50  C   GLN P   7      14.200 -13.237   2.088 -0.17 +0.01    +0.241 C 
DOCKED: ATOM     51  O   GLN P   7      15.150 -12.577   2.480 -0.14 -0.08    -0.271 OA
DOCKED: ATOM     52  N   SER P   8      13.089 -13.360   2.796 -0.06 +0.04    -0.344 N 
DOCKED: ATOM     53  HN  SER P   8      12.266 -13.785   2.369 +0.10 -0.02    +0.163 HD
DOCKED: BRANCH  52  54
DOCKED: ATOM     54  CA  SER P   8      13.024 -12.904   4.162 -0.15 -0.05    +0.200 C 
DOCKED: BRANCH  54  55
DOCKED: ATOM     55  C   SER P   8      13.941 -11.695   4.191 -0.13 -0.01    +0.243 C 
DOCKED: ATOM     56  O   SER P   8      14.026 -10.938   3.225 -0.16 -0.02    -0.271 OA
DOCKED: ATOM     57  N   ARG P   9      14.619 -11.486   5.304 -0.05 +0.01    -0.346 N 
DOCKED: ATOM     58  HN  ARG P   9      14.379 -12.005   6.149 +0.05 -0.06    +0.163 HD
DOCKED: BRANCH  57  59
DOCKED: ATOM     59  CA  ARG P   9      15.695 -10.530   5.329 -0.10 +0.05    +0.172 C 
DOCKED: ATOM     60  CB  ARG P   9      15.905  -9.937   3.956 -0.24 +0.01    +0.042 C 
DOCKED: BRANCH  59  61
DOCKED: ATOM     61  C   ARG P   9      15.281  -9.460   6.326 -0.03 +0.00    +0.243 C 
DOCKED: ATOM     62  N   PRO P  10      14.016  -9.044   6.268 -0.01 +0.02    -0.336 N 
DOCKED: ATOM     63  CD  PRO P  10      13.245  -8.850   5.035 -0.20 -0.01    +0.127 C 
DOCKED: ATOM     64  CA  PRO P  10      13.312  -8.439   7.384 -0.11 -0.02    +0.188 C 
DOCKED: ATOM     65  CG  PRO P  10      12.695  -7.472   5.278 -0.26 -0.00    +0.022 C 
DOCKED: ATOM     66  CB  PRO P  10      12.725  -7.187   6.708 -0.04 -0.00    +0.038 C 
DOCKED: ATOM     67  O   ARG P   9      16.115  -8.934   7.064 -0.01 -0.01    -0.271 OA
DOCKED: BRANCH  64  68
DOCKED: ATOM     68  C   PRO P  10      12.190  -9.361   7.879 -0.22 -0.03    +0.196 C 
DOCKED: ATOM     69  O   PRO P  10      11.993  -9.556   9.090 -0.02 +0.15    -0.646 OA
DOCKED: ATOM     70  OXT PRO P  10      11.442  -9.935   7.080 -0.29 +0.04    -0.646 OA
DOCKED: ENDBRANCH  64  68
DOCKED: ENDBRANCH  59  61
DOCKED: ENDBRANCH  57  59
DOCKED: ENDBRANCH  54  55
DOCKED: BRANCH  54  71
DOCKED: ATOM     71  CB  SER P   8      13.530 -13.990   5.112 -0.23 -0.10    +0.199 C 
DOCKED: BRANCH  71  72
DOCKED: ATOM     72  OG  SER P   8      14.862 -14.371   4.817 -0.20 +0.17    -0.398 OA
DOCKED: ATOM     73  HG  SER P   8      15.327 -13.694   4.339 +0.09 +0.02    +0.209 HD
DOCKED: ENDBRANCH  71  72
DOCKED: ENDBRANCH  54  71
DOCKED: ENDBRANCH  52  54
DOCKED: ENDBRANCH  42  50
DOCKED: ENDBRANCH  40  42
DOCKED: ENDBRANCH   1  38
DOCKED: TORSDOF 26
DOCKED: TER
DOCKED: ENDMDL
________________________________________________________________________________


	BEGINNING GENETIC ALGORITHM DOCKING 3 of 10
Run: 3 Seed: 875903531 947100506 [ Run 3 of 10 GA/GALS ]
Beginning LAMARCKIAN GENETIC ALGORITHM (LGA), with a maximum of 2500000 energy evaluations.

Final-Value: -8.882


	FINAL GENETIC ALGORITHM DOCKED STATE
	_______________________________________________


Detailed state:  trans 10.981 -14.342 1.958 quatxyzw 0.768379 -0.594996 0.028832 -0.233969 center 9.642 -14.316 1.762 ntor 26 -38.3057 55.9178 70.5996 -156.6913 144.2980 -109.3207 -130.7237 -48.7220 64.2592 -61.2930 94.9914 148.8567 -47.9588 124.8010 170.3062 -14.1629 115.5208 -39.5950 -138.3009 -108.3222 178.4277 166.4841 -179.5845 115.3465 172.4169 -144.7993
State:	 10.981 -14.342   1.958   0.790 -0.612  0.030 -152.938    -38.31   55.92   70.60 -156.69  144.30 -109.32 -130.72  -48.72   64.26  -61.29   94.99  148.86  -47.96  124.80  170.31  -14.16  115.52  -39.59 -138.30 -108.32  178.43  166.48 -179.58  115.35  172.42 -144.80

DOCKED: MODEL        3
DOCKED: USER    Run = 3
DOCKED: USER    DPF = dock.dpf
DOCKED: USER  
DOCKED: USER    Estimated Free Energy of Binding    =   -4.68 kcal/mol  [=(1)+(2)+(3)-(4)]
DOCKED: USER    Estimated Inhibition Constant, Ki   =  369.53 uM (micromolar)  [Temperature = 298.15 K]
DOCKED: USER    
DOCKED: USER    (1) Final Intermolecular Energy     =  -12.44 kcal/mol
DOCKED: USER        vdW + Hbond + desolv Energy     =  -10.68 kcal/mol
DOCKED: USER        Electrostatic Energy            =   -1.75 kcal/mol
DOCKED: USER    (2) Final Total Internal Energy     =   +3.56 kcal/mol
DOCKED: USER    (3) Torsional Free Energy           =   +7.76 kcal/mol
DOCKED: USER    (4) Unbound System's Energy  [=(2)] =   +3.56 kcal/mol
DOCKED: USER    
DOCKED: USER    
DOCKED: USER    NEWDPF move lig3d3t.pdbqt
DOCKED: USER    NEWDPF about 9.642000 -14.316000 1.762000
DOCKED: USER    NEWDPF tran0 10.980503 -14.342194 1.957538
DOCKED: USER    NEWDPF quaternion0 0.768379 -0.594996 0.028832 -0.233969
DOCKED: USER    NEWDPF axisangle0 0.790315 -0.611982 0.029655 -152.938336
DOCKED: USER    NEWDPF quat0 0.790315 -0.611982 0.029655 -152.938336
DOCKED: USER    NEWDPF dihe0 -38.31 55.92 70.60 -156.69 144.30 -109.32 -130.72 -48.72 64.26 -61.29 94.99 148.86 -47.96 124.80 170.31 -14.16 115.52 -39.59 -138.30 -108.32 178.43 166.48 -179.58 115.35 172.42 -144.80 
DOCKED: USER  keepresnum = 1 
DOCKED: USER  
DOCKED: REMARK  26 active torsions:
DOCKED: REMARK  status: ('A' for Active; 'I' for Inactive)
DOCKED: REMARK    1  A    between atoms: N_1  and  CA_5 
DOCKED: REMARK    2  A    between atoms: CA_5  and  C_6 
DOCKED: REMARK       I    between atoms: C_6  and  N_8 
DOCKED: REMARK    3  A    between atoms: N_8  and  CA_10 
DOCKED: REMARK    4  A    between atoms: CA_10  and  CB_13 
DOCKED: REMARK    5  A    between atoms: CA_10  and  C_11 
DOCKED: REMARK       I    between atoms: C_11  and  N_19 
DOCKED: REMARK    6  A    between atoms: CB_13  and  CG_14 
DOCKED: REMARK       I    between atoms: CG_14  and  ND2_15 
DOCKED: REMARK    7  A    between atoms: N_19  and  CA_21 
DOCKED: REMARK    8  A    between atoms: CA_21  and  CB_24 
DOCKED: REMARK    9  A    between atoms: CA_21  and  C_22 
DOCKED: REMARK       I    between atoms: C_22  and  N_31 
DOCKED: REMARK   10  A    between atoms: CB_24  and  CG_25 
DOCKED: REMARK   11  A    between atoms: N_31  and  CA_33 
DOCKED: REMARK   12  A    between atoms: CA_33  and  CB_36 
DOCKED: REMARK   13  A    between atoms: CA_33  and  C_34 
DOCKED: REMARK       I    between atoms: C_34  and  N_40 
DOCKED: REMARK   14  A    between atoms: CB_36  and  CG_37 
DOCKED: REMARK   15  A    between atoms: N_40  and  CA_42 
DOCKED: REMARK   16  A    between atoms: CA_42  and  CB_45 
DOCKED: REMARK   17  A    between atoms: CA_42  and  C_43 
DOCKED: REMARK       I    between atoms: C_43  and  N_52 
DOCKED: REMARK   18  A    between atoms: CB_45  and  CG_46 
DOCKED: REMARK   19  A    between atoms: CG_46  and  CD_47 
DOCKED: REMARK       I    between atoms: CD_47  and  NE2_48 
DOCKED: REMARK   20  A    between atoms: N_52  and  CA_54 
DOCKED: REMARK   21  A    between atoms: CA_54  and  C_55 
DOCKED: REMARK   22  A    between atoms: CA_54  and  CB_57 
DOCKED: REMARK       I    between atoms: C_55  and  N_60 
DOCKED: REMARK   23  A    between atoms: CB_57  and  OG_58 
DOCKED: REMARK   24  A    between atoms: N_60  and  CA_62 
DOCKED: REMARK   25  A    between atoms: CA_62  and  C_63 
DOCKED: REMARK       I    between atoms: C_63  and  N_66 
DOCKED: REMARK   26  A    between atoms: CA_67  and  C_68 
DOCKED: USER                              x       y       z     vdW  Elec       q    Type
DOCKED: USER                           _______ _______ _______ _____ _____    ______ ____
DOCKED: ROOT
DOCKED: ATOM      1  CA  LEU P   6      12.641 -14.705   3.177 +0.01 -0.06    +0.177 C 
DOCKED: ENDROOT
DOCKED: BRANCH   1   2
DOCKED: ATOM      2  N   LEU P   6      12.940 -13.326   3.507 -0.05 +0.06    -0.346 N 
DOCKED: ATOM      3  C   PHE P   5      11.963 -12.462   3.748 -0.01 -0.07    +0.241 C 
DOCKED: ATOM      4  O   PHE P   5      10.796 -12.662   3.407 +0.50 +0.09    -0.271 OA
DOCKED: ATOM      5  HN  LEU P   6      13.911 -13.016   3.553 +0.09 -0.01    +0.163 HD
DOCKED: BRANCH   3   6
DOCKED: ATOM      6  CA  PHE P   5      12.356 -11.189   4.497 -0.01 -0.05    +0.180 C 
DOCKED: BRANCH   6   7
DOCKED: ATOM      7  N   PHE P   5      11.768 -11.053   5.829 +0.48 +0.14    -0.346 N 
DOCKED: ATOM      8  C   ASN P   4      12.353 -10.302   6.757 -0.16 -0.05    +0.241 C 
DOCKED: ATOM      9  O   ASN P   4      13.328  -9.592   6.510 -0.08 +0.04    -0.271 OA
DOCKED: ATOM     10  HN  PHE P   5      10.899 -11.540   6.049 -0.47 -0.12    +0.163 HD
DOCKED: BRANCH   8  11
DOCKED: ATOM     11  CA  ASN P   4      11.762 -10.368   8.166 -0.22 -0.04    +0.185 C 
DOCKED: BRANCH  11  12
DOCKED: ATOM     12  N   ASN P   4      11.651 -11.753   8.621 -0.14 +0.19    -0.346 N 
DOCKED: ATOM     13  C   GLY P   3      12.653 -12.618   8.488 -0.15 -0.22    +0.243 C 
DOCKED: ATOM     14  O   GLY P   3      13.704 -12.334   7.914 -0.09 +0.26    -0.272 OA
DOCKED: ATOM     15  HN  ASN P   4      10.781 -12.065   9.052 +0.06 -0.10    +0.163 HD
DOCKED: BRANCH  13  16
DOCKED: ATOM     16  CA  GLY P   3      12.443 -13.999   9.077 +0.26 -0.53    +0.332 C 
DOCKED: BRANCH  16  17
DOCKED: ATOM     17  N   GLY P   3      12.763 -13.984  10.528 -0.14 +0.13    -0.071 N 
DOCKED: ATOM     18  HN3 GLY P   3      11.949 -13.753  11.098 -0.45 -0.59    +0.274 HD
DOCKED: ATOM     19  HN2 GLY P   3      12.936 -14.921  10.892 -0.20 -0.63    +0.274 HD
DOCKED: ATOM     20  HN1 GLY P   3      13.545 -13.353  10.704 +0.06 -0.33    +0.274 HD
DOCKED: ENDBRANCH  16  17
DOCKED: ENDBRANCH  13  16
DOCKED: ENDBRANCH  11  12
DOCKED: BRANCH  11  21
DOCKED: ATOM     21  CB  ASN P   4      12.597  -9.541   9.153 -0.14 -0.03    +0.137 C 
DOCKED: BRANCH  21  22
DOCKED: ATOM     22  CG  ASN P   4      11.830  -8.345   9.713 -0.20 -0.05    +0.217 C 
DOCKED: ATOM     23  OD1 ASN P   4      11.981  -7.217   9.240 -0.14 +0.04    -0.274 OA
DOCKED: ATOM     24  ND2 ASN P   4      11.001  -8.593  10.726 -0.03 +0.15    -0.370 N 
DOCKED: ATOM     25 2HD2 ASN P   4      10.875  -9.526  11.117 -0.25 -0.08    +0.159 HD
DOCKED: ATOM     26 1HD2 ASN P   4      10.488  -7.794  11.100 -0.27 -0.07    +0.159 HD
DOCKED: ENDBRANCH  21  22
DOCKED: ENDBRANCH  11  21
DOCKED: ENDBRANCH   8  11
DOCKED: ENDBRANCH   6   7
DOCKED: BRANCH   6  27
DOCKED: ATOM     27  CB  PHE P   5      13.880 -11.014   4.540 -0.18 -0.00    +0.073 C 
DOCKED: BRANCH  27  28
DOCKED: ATOM     28  CG  PHE P   5      14.339  -9.642   4.137 -0.17 -0.00    -0.056 A 
DOCKED: ATOM     29  CD1 PHE P   5      13.425  -8.602   4.005 -0.23 -0.00    +0.007 A 
DOCKED: ATOM     30  CE1 PHE P   5      13.846  -7.323   3.647 -0.17 +0.00    +0.001 A 
DOCKED: ATOM     31  CZ  PHE P   5      15.194  -7.071   3.416 -0.18 +0.00    +0.000 A 
DOCKED: ATOM     32  CE2 PHE P   5      16.121  -8.108   3.541 -0.20 +0.00    +0.001 A 
DOCKED: ATOM     33  CD2 PHE P   5      15.687  -9.387   3.902 -0.21 +0.00    +0.007 A 
DOCKED: ENDBRANCH  27  28
DOCKED: ENDBRANCH   6  27
DOCKED: ENDBRANCH   3   6
DOCKED: ENDBRANCH   1   2
DOCKED: BRANCH   1  34
DOCKED: ATOM     34  CB  LEU P   6      11.917 -15.389   4.339 -0.22 -0.01    +0.038 C 
DOCKED: BRANCH  34  35
DOCKED: ATOM     35  CG  LEU P   6      10.633 -14.716   4.842 -0.40 +0.01    -0.020 C 
DOCKED: ATOM     36  CD2 LEU P   6      10.789 -14.095   6.224 -0.42 -0.00    +0.009 C 
DOCKED: ATOM     37  CD1 LEU P   6       9.488 -15.693   4.813 -0.47 -0.00    +0.009 C 
DOCKED: ENDBRANCH  34  35
DOCKED: ENDBRANCH   1  34
DOCKED: BRANCH   1  38
DOCKED: ATOM     38  C   LEU P   6      11.738 -14.716   1.948 -0.11 -0.05    +0.241 C 
DOCKED: ATOM     39  O   LEU P   6      11.319 -15.769   1.485 -0.01 +0.09    -0.271 OA
DOCKED: ATOM     40  N   GLN P   7      11.450 -13.540   1.417 -0.12 +0.00    -0.346 N 
DOCKED: ATOM     41  HN  GLN P   7      11.757 -12.693   1.894 +0.09 -0.00    +0.163 HD
DOCKED: BRANCH  40  42
DOCKED: ATOM     42  CA  GLN P   7      10.712 -13.419   0.180 -0.29 +0.03    +0.177 C 
DOCKED: BRANCH  42  43
DOCKED: ATOM     43  CB  GLN P   7      11.658 -13.046  -0.959 -0.42 +0.00    +0.044 C 
DOCKED: BRANCH  43  44
DOCKED: ATOM     44  CG  GLN P   7      12.592 -11.897  -0.666 -0.63 +0.01    +0.105 C 
DOCKED: BRANCH  44  45
DOCKED: ATOM     45  CD  GLN P   7      13.518 -12.183   0.473 -0.28 +0.01    +0.215 C 
DOCKED: ATOM     46  OE1 GLN P   7      13.990 -13.303   0.639 -0.13 -0.01    -0.274 OA
DOCKED: ATOM     47  NE2 GLN P   7      13.787 -11.172   1.272 -0.20 -0.04    -0.370 N 
DOCKED: ATOM     48 2HE2 GLN P   7      14.418 -11.368   2.048 +0.08 +0.02    +0.159 HD
DOCKED: ATOM     49 1HE2 GLN P   7      13.394 -10.241   1.135 +0.10 +0.03    +0.159 HD
DOCKED: ENDBRANCH  44  45
DOCKED: ENDBRANCH  43  44
DOCKED: ENDBRANCH  42  43
DOCKED: BRANCH  42  50
DOCKED: ATOM     50  C   GLN P   7       9.962 -14.719  -0.113 -0.26 +0.02    +0.241 C 
DOCKED: ATOM     51  O   GLN P   7       8.758 -14.818   0.069 -0.30 -0.04    -0.271 OA
DOCKED: ATOM     52  N   SER P   8      10.681 -15.711  -0.611 -0.13 -0.02    -0.344 N 
DOCKED: ATOM     53  HN  SER P   8      11.646 -15.539  -0.894 +0.10 +0.03    +0.163 HD
DOCKED: BRANCH  52  54
DOCKED: ATOM     54  CA  SER P   8      10.123 -17.032  -0.760 -0.26 +0.00    +0.200 C 
DOCKED: BRANCH  54  55
DOCKED: ATOM     55  C   SER P   8       8.874 -16.812  -1.594 -0.24 -0.02    +0.243 C 
DOCKED: ATOM     56  O   SER P   8       7.882 -17.527  -1.454 -0.18 +0.05    -0.271 OA
DOCKED: ATOM     57  N   ARG P   9       8.898 -15.809  -2.451 -0.14 +0.01    -0.346 N 
DOCKED: ATOM     58  HN  ARG P   9       9.646 -15.117  -2.402 +0.10 +0.01    +0.163 HD
DOCKED: BRANCH  57  59
DOCKED: ATOM     59  CA  ARG P   9       7.872 -15.689  -3.455 -0.30 -0.02    +0.172 C 
DOCKED: ATOM     60  CB  ARG P   9       8.483 -15.695  -4.836 -0.41 -0.01    +0.042 C 
DOCKED: BRANCH  59  61
DOCKED: ATOM     61  C   ARG P   9       6.955 -16.886  -3.261 -0.19 -0.05    +0.243 C 
DOCKED: ATOM     62  N   PRO P  10       5.941 -16.732  -2.411 -0.10 +0.02    -0.336 N 
DOCKED: ATOM     63  CD  PRO P  10       5.999 -15.985  -1.150 -0.01 +0.02    +0.127 C 
DOCKED: ATOM     64  CA  PRO P  10       4.722 -17.520  -2.456 -0.21 -0.00    +0.188 C 
DOCKED: ATOM     65  CG  PRO P  10       5.393 -16.994  -0.214 -0.44 +0.00    +0.022 C 
DOCKED: ATOM     66  CB  PRO P  10       4.606 -17.951  -0.983 -0.40 +0.00    +0.038 C 
DOCKED: ATOM     67  O   ARG P   9       7.220 -17.970  -3.782 -0.12 +0.10    -0.271 OA
DOCKED: BRANCH  64  68
DOCKED: ATOM     68  C   PRO P  10       3.527 -16.646  -2.857 -0.22 +0.00    +0.196 C 
DOCKED: ATOM     69  O   PRO P  10       3.382 -16.232  -4.019 -0.01 +0.07    -0.646 OA
DOCKED: ATOM     70  OXT PRO P  10       2.664 -16.332  -2.028 -0.05 -0.05    -0.646 OA
DOCKED: ENDBRANCH  64  68
DOCKED: ENDBRANCH  59  61
DOCKED: ENDBRANCH  57  59
DOCKED: ENDBRANCH  54  55
DOCKED: BRANCH  54  71
DOCKED: ATOM     71  CB  SER P   8       9.765 -17.617   0.607 -0.24 -0.01    +0.199 C 
DOCKED: BRANCH  71  72
DOCKED: ATOM     72  OG  SER P   8       8.886 -16.773   1.329 -0.26 +0.00    -0.398 OA
DOCKED: ATOM     73  HG  SER P   8       8.236 -17.269   1.812 +0.14 +0.01    +0.209 HD
DOCKED: ENDBRANCH  71  72
DOCKED: ENDBRANCH  54  71
DOCKED: ENDBRANCH  52  54
DOCKED: ENDBRANCH  42  50
DOCKED: ENDBRANCH  40  42
DOCKED: ENDBRANCH   1  38
DOCKED: TORSDOF 26
DOCKED: TER
DOCKED: ENDMDL
________________________________________________________________________________


	BEGINNING GENETIC ALGORITHM DOCKING 4 of 10
Run: 4 Seed: 1562367862 1989196024 [ Run 4 of 10 GA/GALS ]
Beginning LAMARCKIAN GENETIC ALGORITHM (LGA), with a maximum of 2500000 energy evaluations.

Final-Value: 16.269


	FINAL GENETIC ALGORITHM DOCKED STATE
	_______________________________________________


Detailed state:  trans 12.651 -11.123 0.567 quatxyzw 0.058534 -0.972204 0.172199 -0.147447 center 9.642 -14.316 1.762 ntor 26 -134.7765 103.7384 -180.0000 -45.9556 175.9380 180.0000 121.5711 154.3307 -42.8269 -76.5706 -121.5283 150.3515 112.6046 -179.9490 33.7873 -128.2900 -50.1261 -55.3929 -27.4891 3.9638 14.9826 175.7820 -154.6151 142.2879 -35.0026 -7.3226
State:	 12.651 -11.123   0.567   0.059 -0.983  0.174 -163.042   -134.78  103.74 -180.00  -45.96  175.94  180.00  121.57  154.33  -42.83  -76.57 -121.53  150.35  112.60 -179.95   33.79 -128.29  -50.13  -55.39  -27.49    3.96   14.98  175.78 -154.62  142.29  -35.00   -7.32

DOCKED: MODEL        4
DOCKED: USER    Run = 4
DOCKED: USER    DPF = dock.dpf
DOCKED: USER  
DOCKED: USER    Estimated Free Energy of Binding    =  +26.07 kcal/mol  [=(1)+(2)+(3)-(4)]
DOCKED: USER    
DOCKED: USER    (1) Final Intermolecular Energy     =  +18.31 kcal/mol
DOCKED: USER        vdW + Hbond + desolv Energy     =  +19.63 kcal/mol
DOCKED: USER        Electrostatic Energy            =   -1.32 kcal/mol
DOCKED: USER    (2) Final Total Internal Energy     =   -2.04 kcal/mol
DOCKED: USER    (3) Torsional Free Energy           =   +7.76 kcal/mol
DOCKED: USER    (4) Unbound System's Energy  [=(2)] =   -2.04 kcal/mol
DOCKED: USER    
DOCKED: USER    
DOCKED: USER    NEWDPF move lig3d3t.pdbqt
DOCKED: USER    NEWDPF about 9.642000 -14.316000 1.762000
DOCKED: USER    NEWDPF tran0 12.651204 -11.122678 0.566652
DOCKED: USER    NEWDPF quaternion0 0.058534 -0.972204 0.172199 -0.147447
DOCKED: USER    NEWDPF axisangle0 0.059181 -0.982948 0.174102 -163.041987
DOCKED: USER    NEWDPF quat0 0.059181 -0.982948 0.174102 -163.041987
DOCKED: USER    NEWDPF dihe0 -134.78 103.74 -180.00 -45.96 175.94 180.00 121.57 154.33 -42.83 -76.57 -121.53 150.35 112.60 -179.95 33.79 -128.29 -50.13 -55.39 -27.49 3.96 14.98 175.78 -154.62 142.29 -35.00 -7.32 
DOCKED: USER  keepresnum = 1 
DOCKED: USER  
DOCKED: REMARK  26 active torsions:
DOCKED: REMARK  status: ('A' for Active; 'I' for Inactive)
DOCKED: REMARK    1  A    between atoms: N_1  and  CA_5 
DOCKED: REMARK    2  A    between atoms: CA_5  and  C_6 
DOCKED: REMARK       I    between atoms: C_6  and  N_8 
DOCKED: REMARK    3  A    between atoms: N_8  and  CA_10 
DOCKED: REMARK    4  A    between atoms: CA_10  and  CB_13 
DOCKED: REMARK    5  A    between atoms: CA_10  and  C_11 
DOCKED: REMARK       I    between atoms: C_11  and  N_19 
DOCKED: REMARK    6  A    between atoms: CB_13  and  CG_14 
DOCKED: REMARK       I    between atoms: CG_14  and  ND2_15 
DOCKED: REMARK    7  A    between atoms: N_19  and  CA_21 
DOCKED: REMARK    8  A    between atoms: CA_21  and  CB_24 
DOCKED: REMARK    9  A    between atoms: CA_21  and  C_22 
DOCKED: REMARK       I    between atoms: C_22  and  N_31 
DOCKED: REMARK   10  A    between atoms: CB_24  and  CG_25 
DOCKED: REMARK   11  A    between atoms: N_31  and  CA_33 
DOCKED: REMARK   12  A    between atoms: CA_33  and  CB_36 
DOCKED: REMARK   13  A    between atoms: CA_33  and  C_34 
DOCKED: REMARK       I    between atoms: C_34  and  N_40 
DOCKED: REMARK   14  A    between atoms: CB_36  and  CG_37 
DOCKED: REMARK   15  A    between atoms: N_40  and  CA_42 
DOCKED: REMARK   16  A    between atoms: CA_42  and  CB_45 
DOCKED: REMARK   17  A    between atoms: CA_42  and  C_43 
DOCKED: REMARK       I    between atoms: C_43  and  N_52 
DOCKED: REMARK   18  A    between atoms: CB_45  and  CG_46 
DOCKED: REMARK   19  A    between atoms: CG_46  and  CD_47 
DOCKED: REMARK       I    between atoms: CD_47  and  NE2_48 
DOCKED: REMARK   20  A    between atoms: N_52  and  CA_54 
DOCKED: REMARK   21  A    between atoms: CA_54  and  C_55 
DOCKED: REMARK   22  A    between atoms: CA_54  and  CB_57 
DOCKED: REMARK       I    between atoms: C_55  and  N_60 
DOCKED: REMARK   23  A    between atoms: CB_57  and  OG_58 
DOCKED: REMARK   24  A    between atoms: N_60  and  CA_62 
DOCKED: REMARK   25  A    between atoms: CA_62  and  C_63 
DOCKED: REMARK       I    between atoms: C_63  and  N_66 
DOCKED: REMARK   26  A    between atoms: CA_67  and  C_68 
DOCKED: USER                              x       y       z     vdW  Elec       q    Type
DOCKED: USER                           _______ _______ _______ _____ _____    ______ ____
DOCKED: ROOT
DOCKED: ATOM      1  CA  LEU P   6      12.041 -11.737   2.471 -0.22 -0.01    +0.177 C 
DOCKED: ENDROOT
DOCKED: BRANCH   1   2
DOCKED: ATOM      2  N   LEU P   6      13.349 -11.746   3.096 -0.09 +0.01    -0.346 N 
DOCKED: ATOM      3  C   PHE P   5      14.019 -10.616   3.276 -0.20 +0.01    +0.241 C 
DOCKED: ATOM      4  O   PHE P   5      13.753  -9.578   2.667 -0.09 -0.02    -0.271 OA
DOCKED: ATOM      5  HN  LEU P   6      13.757 -12.629   3.400 +0.09 -0.01    +0.163 HD
DOCKED: BRANCH   3   6
DOCKED: ATOM      6  CA  PHE P   5      15.148 -10.656   4.305 -0.17 +0.04    +0.180 C 
DOCKED: BRANCH   6   7
DOCKED: ATOM      7  N   PHE P   5      14.747 -10.329   5.672 -0.02 -0.00    -0.346 N 
DOCKED: ATOM      8  C   ASN P   4      14.817  -9.079   6.121 -0.03 -0.00    +0.241 C 
DOCKED: ATOM      9  O   ASN P   4      15.094  -8.131   5.387 -0.04 -0.00    -0.271 OA
DOCKED: ATOM     10  HN  PHE P   5      14.408 -11.068   6.288 +0.05 -0.03    +0.163 HD
DOCKED: BRANCH   8  11
DOCKED: ATOM     11  CA  ASN P   4      14.548  -8.870   7.612 -0.03 -0.02    +0.185 C 
DOCKED: BRANCH  11  12
DOCKED: ATOM     12  N   ASN P   4      15.082  -9.980   8.400 +0.01 +0.07    -0.346 N 
DOCKED: ATOM     13  C   GLY P   3      14.356 -11.061   8.672 -0.03 -0.12    +0.243 C 
DOCKED: ATOM     14  O   GLY P   3      13.174 -11.167   8.345 -0.07 +0.13    -0.272 OA
DOCKED: ATOM     15  HN  ASN P   4      16.038  -9.925   8.751 +0.02 -0.02    +0.163 HD
DOCKED: BRANCH  13  16
DOCKED: ATOM     16  CA  GLY P   3      15.052 -12.177   9.425 +0.13 -0.32    +0.332 C 
DOCKED: BRANCH  16  17
DOCKED: ATOM     17  N   GLY P   3      14.052 -13.177   9.884 +0.11 +0.10    -0.071 N 
DOCKED: ATOM     18  HN3 GLY P   3      14.244 -14.109   9.516 -0.42 -0.74    +0.274 HD
DOCKED: ATOM     19  HN2 GLY P   3      14.150 -13.388  10.877 +0.03 -0.30    +0.274 HD
DOCKED: ATOM     20  HN1 GLY P   3      13.111 -12.859   9.651 +0.06 -0.31    +0.274 HD
DOCKED: ENDBRANCH  16  17
DOCKED: ENDBRANCH  13  16
DOCKED: ENDBRANCH  11  12
DOCKED: BRANCH  11  21
DOCKED: ATOM     21  CB  ASN P   4      15.131  -7.535   8.096 -0.02 -0.01    +0.137 C 
DOCKED: BRANCH  21  22
DOCKED: ATOM     22  CG  ASN P   4      14.078  -6.434   8.188 -0.06 -0.02    +0.217 C 
DOCKED: ATOM     23  OD1 ASN P   4      13.635  -6.071   9.280 -0.05 +0.02    -0.274 OA
DOCKED: ATOM     24  ND2 ASN P   4      13.676  -5.897   7.038 -0.05 +0.02    -0.370 N 
DOCKED: ATOM     25 2HD2 ASN P   4      14.043  -6.197   6.134 +0.03 -0.01    +0.159 HD
DOCKED: ATOM     26 1HD2 ASN P   4      12.972  -5.161   7.099 +0.02 -0.01    +0.159 HD
DOCKED: ENDBRANCH  21  22
DOCKED: ENDBRANCH  11  21
DOCKED: ENDBRANCH   8  11
DOCKED: ENDBRANCH   6   7
DOCKED: BRANCH   6  27
DOCKED: ATOM     27  CB  PHE P   5      15.906 -11.989   4.250 +0.54 +0.05    +0.073 C 
DOCKED: BRANCH  27  28
DOCKED: ATOM     28  CG  PHE P   5      15.093 -13.162   4.716 -0.22 +0.00    -0.056 A 
DOCKED: ATOM     29  CD1 PHE P   5      15.389 -14.448   4.274 -0.38 -0.00    +0.007 A 
DOCKED: ATOM     30  CE1 PHE P   5      14.649 -15.542   4.714 -0.31 -0.00    +0.001 A 
DOCKED: ATOM     31  CZ  PHE P   5      13.597 -15.360   5.606 +0.41 -0.00    +0.000 A 
DOCKED: ATOM     32  CE2 PHE P   5      13.286 -14.074   6.052 -0.16 -0.00    +0.001 A 
DOCKED: ATOM     33  CD2 PHE P   5      14.037 -12.983   5.605 -0.21 -0.00    +0.007 A 
DOCKED: ENDBRANCH  27  28
DOCKED: ENDBRANCH   6  27
DOCKED: ENDBRANCH   3   6
DOCKED: ENDBRANCH   1   2
DOCKED: BRANCH   1  34
DOCKED: ATOM     34  CB  LEU P   6      11.265 -10.480   2.871 +3.29 -0.00    +0.038 C 
DOCKED: BRANCH  34  35
DOCKED: ATOM     35  CG  LEU P   6      11.799  -9.692   4.074 +0.03 +0.00    -0.020 C 
DOCKED: ATOM     36  CD2 LEU P   6      11.781 -10.498   5.367 +1.45 -0.00    +0.009 C 
DOCKED: ATOM     37  CD1 LEU P   6      11.042  -8.401   4.229 +0.12 -0.00    +0.009 C 
DOCKED: ENDBRANCH  34  35
DOCKED: ENDBRANCH   1  34
DOCKED: BRANCH   1  38
DOCKED: ATOM     38  C   LEU P   6      12.236 -11.746   0.959 -0.33 +0.02    +0.241 C 
DOCKED: ATOM     39  O   LEU P   6      13.109 -11.067   0.433 -0.42 -0.03    -0.271 OA
DOCKED: ATOM     40  N   GLN P   7      11.411 -12.510   0.262 -0.17 -0.04    -0.346 N 
DOCKED: ATOM     41  HN  GLN P   7      10.760 -13.116   0.758 +0.09 +0.02    +0.163 HD
DOCKED: BRANCH  40  42
DOCKED: ATOM     42  CA  GLN P   7      11.407 -12.509  -1.184 +0.21 +0.03    +0.177 C 
DOCKED: BRANCH  42  43
DOCKED: ATOM     43  CB  GLN P   7      12.834 -12.637  -1.712 +4.72 -0.00    +0.044 C 
DOCKED: BRANCH  43  44
DOCKED: ATOM     44  CG  GLN P   7      13.885 -12.892  -0.660 +0.25 -0.00    +0.105 C 
DOCKED: BRANCH  44  45
DOCKED: ATOM     45  CD  GLN P   7      13.690 -14.197   0.045 -0.26 -0.00    +0.215 C 
DOCKED: ATOM     46  OE1 GLN P   7      12.750 -14.367   0.814 -0.22 +0.02    -0.274 OA
DOCKED: ATOM     47  NE2 GLN P   7      14.578 -15.134  -0.210 +0.06 -0.01    -0.370 N 
DOCKED: ATOM     48 2HE2 GLN P   7      14.445 -16.024   0.271 +0.10 -0.00    +0.159 HD
DOCKED: ATOM     49 1HE2 GLN P   7      15.360 -14.994  -0.850 +0.12 +0.01    +0.159 HD
DOCKED: ENDBRANCH  44  45
DOCKED: ENDBRANCH  43  44
DOCKED: ENDBRANCH  42  43
DOCKED: BRANCH  42  50
DOCKED: ATOM     50  C   GLN P   7      10.509 -13.633  -1.706 +0.49 +0.04    +0.241 C 
DOCKED: ATOM     51  O   GLN P   7       9.471 -13.396  -2.304 +4.48 -0.06    -0.271 OA
DOCKED: ATOM     52  N   SER P   8      10.942 -14.867  -1.510 -0.13 -0.03    -0.344 N 
DOCKED: ATOM     53  HN  SER P   8      11.885 -15.018  -1.149 +0.11 +0.02    +0.163 HD
DOCKED: BRANCH  52  54
DOCKED: ATOM     54  CA  SER P   8      10.103 -16.004  -1.799 -0.30 +0.01    +0.200 C 
DOCKED: BRANCH  54  55
DOCKED: ATOM     55  C   SER P   8       9.731 -16.544  -0.430 -0.28 -0.00    +0.243 C 
DOCKED: ATOM     56  O   SER P   8      10.542 -16.546   0.495 -0.51 +0.03    -0.271 OA
DOCKED: ATOM     57  N   ARG P   9       8.497 -16.986  -0.279 -0.12 +0.00    -0.346 N 
DOCKED: ATOM     58  HN  ARG P   9       7.795 -16.787  -0.992 +0.10 -0.01    +0.163 HD
DOCKED: BRANCH  57  59
DOCKED: ATOM     59  CA  ARG P   9       8.138 -17.747   0.890 +1.45 +0.03    +0.172 C 
DOCKED: ATOM     60  CB  ARG P   9       8.067 -16.851   2.102 -0.38 +0.00    +0.042 C 
DOCKED: BRANCH  59  61
DOCKED: ATOM     61  C   ARG P   9       6.781 -18.361   0.588 -0.09 +0.02    +0.243 C 
DOCKED: ATOM     62  N   PRO P  10       6.021 -17.728  -0.305 -0.13 -0.00    -0.336 N 
DOCKED: ATOM     63  CD  PRO P  10       5.910 -16.272  -0.439 -0.30 +0.02    +0.127 C 
DOCKED: ATOM     64  CA  PRO P  10       4.972 -18.371  -1.075 -0.29 +0.01    +0.188 C 
DOCKED: ATOM     65  CG  PRO P  10       4.413 -16.120  -0.465 -0.21 +0.00    +0.022 C 
DOCKED: ATOM     66  CB  PRO P  10       3.808 -17.389  -0.848 -0.49 +0.00    +0.038 C 
DOCKED: ATOM     67  O   ARG P   9       6.374 -19.330   1.231 +2.88 -0.04    -0.271 OA
DOCKED: BRANCH  64  68
DOCKED: ATOM     68  C   PRO P  10       5.347 -18.426  -2.562 -0.20 -0.01    +0.196 C 
DOCKED: ATOM     69  O   PRO P  10       4.579 -18.904  -3.412 +0.05 -0.01    -0.646 OA
DOCKED: ATOM     70  OXT PRO P  10       6.433 -17.987  -2.958 +0.07 +0.17    -0.646 OA
DOCKED: ENDBRANCH  64  68
DOCKED: ENDBRANCH  59  61
DOCKED: ENDBRANCH  57  59
DOCKED: ENDBRANCH  54  55
DOCKED: BRANCH  54  71
DOCKED: ATOM     71  CB  SER P   8      10.880 -17.049  -2.601 +4.94 +0.00    +0.199 C 
DOCKED: BRANCH  71  72
DOCKED: ATOM     72  OG  SER P   8      10.203 -18.293  -2.643 +1.11 +0.10    -0.398 OA
DOCKED: ATOM     73  HG  SER P   8       9.278 -18.187  -2.830 -0.25 -0.11    +0.209 HD
DOCKED: ENDBRANCH  71  72
DOCKED: ENDBRANCH  54  71
DOCKED: ENDBRANCH  52  54
DOCKED: ENDBRANCH  42  50
DOCKED: ENDBRANCH  40  42
DOCKED: ENDBRANCH   1  38
DOCKED: TORSDOF 26
DOCKED: TER
DOCKED: ENDMDL
________________________________________________________________________________


	BEGINNING GENETIC ALGORITHM DOCKING 5 of 10
Run: 5 Seed: 228310499 218071665 [ Run 5 of 10 GA/GALS ]
Beginning LAMARCKIAN GENETIC ALGORITHM (LGA), with a maximum of 2500000 energy evaluations.

Final-Value: -2.425


	FINAL GENETIC ALGORITHM DOCKED STATE
	_______________________________________________


Detailed state:  trans 11.528 -13.265 1.773 quatxyzw 0.056136 -0.291908 0.102156 0.949317 center 9.642 -14.316 1.762 ntor 26 169.9893 -10.0758 167.0097 -37.8979 29.3722 -12.6994 -146.8300 148.5120 86.2704 -180.0000 43.0019 75.9210 131.6911 24.4587 174.9376 -168.8754 83.3127 97.4113 -129.1831 -90.5124 -167.2532 117.5535 -153.1532 177.0035 172.8341 -78.7573
State:	 11.528 -13.265   1.773   0.179 -0.929  0.325 36.640    169.99  -10.08  167.01  -37.90   29.37  -12.70 -146.83  148.51   86.27 -180.00   43.00   75.92  131.69   24.46  174.94 -168.88   83.31   97.41 -129.18  -90.51 -167.25  117.55 -153.15  177.00  172.83  -78.76

DOCKED: MODEL        5
DOCKED: USER    Run = 5
DOCKED: USER    DPF = dock.dpf
DOCKED: USER  
DOCKED: USER    Estimated Free Energy of Binding    =   +3.91 kcal/mol  [=(1)+(2)+(3)-(4)]
DOCKED: USER    
DOCKED: USER    (1) Final Intermolecular Energy     =   -3.84 kcal/mol
DOCKED: USER        vdW + Hbond + desolv Energy     =   -2.91 kcal/mol
DOCKED: USER        Electrostatic Energy            =   -0.93 kcal/mol
DOCKED: USER    (2) Final Total Internal Energy     =   +1.42 kcal/mol
DOCKED: USER    (3) Torsional Free Energy           =   +7.76 kcal/mol
DOCKED: USER    (4) Unbound System's Energy  [=(2)] =   +1.42 kcal/mol
DOCKED: USER    
DOCKED: USER    
DOCKED: USER    NEWDPF move lig3d3t.pdbqt
DOCKED: USER    NEWDPF about 9.642000 -14.316000 1.762000
DOCKED: USER    NEWDPF tran0 11.527744 -13.265003 1.772862
DOCKED: USER    NEWDPF quaternion0 0.056136 -0.291908 0.102156 0.949317
DOCKED: USER    NEWDPF axisangle0 0.178594 -0.928695 0.325007 36.639617
DOCKED: USER    NEWDPF quat0 0.178594 -0.928695 0.325007 36.639617
DOCKED: USER    NEWDPF dihe0 169.99 -10.08 167.01 -37.90 29.37 -12.70 -146.83 148.51 86.27 -180.00 43.00 75.92 131.69 24.46 174.94 -168.88 83.31 97.41 -129.18 -90.51 -167.25 117.55 -153.15 177.00 172.83 -78.76 
DOCKED: USER  keepresnum = 1 
DOCKED: USER  
DOCKED: REMARK  26 active torsions:
DOCKED: REMARK  status: ('A' for Active; 'I' for Inactive)
DOCKED: REMARK    1  A    between atoms: N_1  and  CA_5 
DOCKED: REMARK    2  A    between atoms: CA_5  and  C_6 
DOCKED: REMARK       I    between atoms: C_6  and  N_8 
DOCKED: REMARK    3  A    between atoms: N_8  and  CA_10 
DOCKED: REMARK    4  A    between atoms: CA_10  and  CB_13 
DOCKED: REMARK    5  A    between atoms: CA_10  and  C_11 
DOCKED: REMARK       I    between atoms: C_11  and  N_19 
DOCKED: REMARK    6  A    between atoms: CB_13  and  CG_14 
DOCKED: REMARK       I    between atoms: CG_14  and  ND2_15 
DOCKED: REMARK    7  A    between atoms: N_19  and  CA_21 
DOCKED: REMARK    8  A    between atoms: CA_21  and  CB_24 
DOCKED: REMARK    9  A    between atoms: CA_21  and  C_22 
DOCKED: REMARK       I    between atoms: C_22  and  N_31 
DOCKED: REMARK   10  A    between atoms: CB_24  and  CG_25 
DOCKED: REMARK   11  A    between atoms: N_31  and  CA_33 
DOCKED: REMARK   12  A    between atoms: CA_33  and  CB_36 
DOCKED: REMARK   13  A    between atoms: CA_33  and  C_34 
DOCKED: REMARK       I    between atoms: C_34  and  N_40 
DOCKED: REMARK   14  A    between atoms: CB_36  and  CG_37 
DOCKED: REMARK   15  A    between atoms: N_40  and  CA_42 
DOCKED: REMARK   16  A    between atoms: CA_42  and  CB_45 
DOCKED: REMARK   17  A    between atoms: CA_42  and  C_43 
DOCKED: REMARK       I    between atoms: C_43  and  N_52 
DOCKED: REMARK   18  A    between atoms: CB_45  and  CG_46 
DOCKED: REMARK   19  A    between atoms: CG_46  and  CD_47 
DOCKED: REMARK       I    between atoms: CD_47  and  NE2_48 
DOCKED: REMARK   20  A    between atoms: N_52  and  CA_54 
DOCKED: REMARK   21  A    between atoms: CA_54  and  C_55 
DOCKED: REMARK   22  A    between atoms: CA_54  and  CB_57 
DOCKED: REMARK       I    between atoms: C_55  and  N_60 
DOCKED: REMARK   23  A    between atoms: CB_57  and  OG_58 
DOCKED: REMARK   24  A    between atoms: N_60  and  CA_62 
DOCKED: REMARK   25  A    between atoms: CA_62  and  C_63 
DOCKED: REMARK       I    between atoms: C_63  and  N_66 
DOCKED: REMARK   26  A    between atoms: CA_67  and  C_68 
DOCKED: USER                              x       y       z     vdW  Elec       q    Type
DOCKED: USER                           _______ _______ _______ _____ _____    ______ ____
DOCKED: ROOT
DOCKED: ATOM      1  CA  LEU P   6      11.574 -14.649   0.204 -0.31 -0.00    +0.177 C 
DOCKED: ENDROOT
DOCKED: BRANCH   1   2
DOCKED: ATOM      2  N   LEU P   6      10.145 -14.864   0.098 -0.12 -0.02    -0.346 N 
DOCKED: ATOM      3  C   PHE P   5       9.441 -14.271  -0.856 -0.28 +0.05    +0.241 C 
DOCKED: ATOM      4  O   PHE P   5       9.857 -13.292  -1.482 +0.93 -0.07    -0.271 OA
DOCKED: ATOM      5  HN  LEU P   6       9.676 -15.478   0.764 +0.11 +0.00    +0.163 HD
DOCKED: BRANCH   3   6
DOCKED: ATOM      6  CA  PHE P   5       8.072 -14.876  -1.163 -0.34 +0.03    +0.180 C 
DOCKED: BRANCH   6   7
DOCKED: ATOM      7  N   PHE P   5       8.082 -15.948  -2.157 -0.12 +0.01    -0.346 N 
DOCKED: ATOM      8  C   ASN P   4       6.979 -16.643  -2.420 -0.20 -0.03    +0.241 C 
DOCKED: ATOM      9  O   ASN P   4       5.884 -16.341  -1.946 -0.18 -0.01    -0.271 OA
DOCKED: ATOM     10  HN  PHE P   5       8.945 -16.165  -2.656 +0.10 -0.01    +0.163 HD
DOCKED: BRANCH   8  11
DOCKED: ATOM     11  CA  ASN P   4       7.135 -17.856  -3.338 +0.29 -0.07    +0.185 C 
DOCKED: BRANCH  11  12
DOCKED: ATOM     12  N   ASN P   4       5.830 -18.395  -3.716 -0.08 +0.08    -0.346 N 
DOCKED: ATOM     13  C   GLY P   3       4.871 -17.624  -4.220 -0.14 -0.05    +0.243 C 
DOCKED: ATOM     14  O   GLY P   3       4.990 -16.404  -4.333 -0.05 +0.10    -0.272 OA
DOCKED: ATOM     15  HN  ASN P   4       5.650 -19.391  -3.590 +0.06 -0.03    +0.163 HD
DOCKED: BRANCH  13  16
DOCKED: ATOM     16  CA  GLY P   3       3.594 -18.318  -4.651 -0.08 -0.04    +0.332 C 
DOCKED: BRANCH  16  17
DOCKED: ATOM     17  N   GLY P   3       3.601 -18.520  -6.124 -0.14 +0.04    -0.071 N 
DOCKED: ATOM     18  HN3 GLY P   3       4.191 -17.837  -6.601 +0.10 -0.17    +0.274 HD
DOCKED: ATOM     19  HN2 GLY P   3       4.106 -19.364  -6.392 -0.23 -0.34    +0.274 HD
DOCKED: ATOM     20  HN1 GLY P   3       2.645 -18.515  -6.479 +0.07 -0.09    +0.274 HD
DOCKED: ENDBRANCH  16  17
DOCKED: ENDBRANCH  13  16
DOCKED: ENDBRANCH  11  12
DOCKED: BRANCH  11  21
DOCKED: ATOM     21  CB  ASN P   4       7.955 -17.501  -4.585 -0.21 -0.03    +0.137 C 
DOCKED: BRANCH  21  22
DOCKED: ATOM     22  CG  ASN P   4       8.322 -16.020  -4.646 -0.28 -0.04    +0.217 C 
DOCKED: ATOM     23  OD1 ASN P   4       9.435 -15.628  -4.288 -0.25 +0.02    -0.274 OA
DOCKED: ATOM     24  ND2 ASN P   4       7.383 -15.193  -5.103 +0.33 +0.15    -0.370 N 
DOCKED: ATOM     25 2HD2 ASN P   4       6.463 -15.518  -5.399 -0.46 -0.10    +0.159 HD
DOCKED: ATOM     26 1HD2 ASN P   4       7.628 -14.204  -5.144 -0.18 -0.05    +0.159 HD
DOCKED: ENDBRANCH  21  22
DOCKED: ENDBRANCH  11  21
DOCKED: ENDBRANCH   8  11
DOCKED: ENDBRANCH   6   7
DOCKED: BRANCH   6  27
DOCKED: ATOM     27  CB  PHE P   5       7.355 -15.313   0.121 -0.36 +0.02    +0.073 C 
DOCKED: BRANCH  27  28
DOCKED: ATOM     28  CG  PHE P   5       8.209 -16.144   1.034 -0.33 -0.00    -0.056 A 
DOCKED: ATOM     29  CD1 PHE P   5       9.060 -17.116   0.515 -0.39 +0.00    +0.007 A 
DOCKED: ATOM     30  CE1 PHE P   5       9.867 -17.880   1.355 +0.30 -0.00    +0.001 A 
DOCKED: ATOM     31  CZ  PHE P   5       9.832 -17.677   2.730 +0.45 -0.00    +0.000 A 
DOCKED: ATOM     32  CE2 PHE P   5       8.979 -16.708   3.264 -0.29 -0.00    +0.001 A 
DOCKED: ATOM     33  CD2 PHE P   5       8.174 -15.947   2.411 -0.33 -0.00    +0.007 A 
DOCKED: ENDBRANCH  27  28
DOCKED: ENDBRANCH   6  27
DOCKED: ENDBRANCH   3   6
DOCKED: ENDBRANCH   1   2
DOCKED: BRANCH   1  34
DOCKED: ATOM     34  CB  LEU P   6      12.059 -13.711  -0.904 +0.30 +0.00    +0.038 C 
DOCKED: BRANCH  34  35
DOCKED: ATOM     35  CG  LEU P   6      13.302 -12.865  -0.597 -0.30 -0.00    -0.020 C 
DOCKED: ATOM     36  CD2 LEU P   6      13.653 -11.896  -1.718 +0.02 -0.00    +0.009 C 
DOCKED: ATOM     37  CD1 LEU P   6      14.468 -13.758  -0.266 +1.47 +0.00    +0.009 C 
DOCKED: ENDBRANCH  34  35
DOCKED: ENDBRANCH   1  34
DOCKED: BRANCH   1  38
DOCKED: ATOM     38  C   LEU P   6      11.860 -14.012   1.560 -0.21 -0.02    +0.241 C 
DOCKED: ATOM     39  O   LEU P   6      12.266 -12.860   1.641 -0.20 +0.00    -0.271 OA
DOCKED: ATOM     40  N   GLN P   7      11.657 -14.772   2.624 -0.06 +0.10    -0.346 N 
DOCKED: ATOM     41  HN  GLN P   7      11.240 -15.694   2.501 -0.30 -0.07    +0.163 HD
DOCKED: BRANCH  40  42
DOCKED: ATOM     42  CA  GLN P   7      12.010 -14.334   3.955 -0.23 -0.06    +0.177 C 
DOCKED: BRANCH  42  43
DOCKED: ATOM     43  CB  GLN P   7      13.288 -15.033   4.414 -0.35 -0.02    +0.044 C 
DOCKED: BRANCH  43  44
DOCKED: ATOM     44  CG  GLN P   7      13.386 -15.279   5.900 +1.04 -0.09    +0.105 C 
DOCKED: BRANCH  44  45
DOCKED: ATOM     45  CD  GLN P   7      12.330 -14.555   6.674 -0.19 -0.15    +0.215 C 
DOCKED: ATOM     46  OE1 GLN P   7      11.139 -14.758   6.463 -0.44 +0.13    -0.274 OA
DOCKED: ATOM     47  NE2 GLN P   7      12.757 -13.701   7.580 -0.05 +0.42    -0.370 N 
DOCKED: ATOM     48 2HE2 GLN P   7      12.037 -13.208   8.108 +0.07 -0.15    +0.159 HD
DOCKED: ATOM     49 1HE2 GLN P   7      13.747 -13.533   7.756 -0.26 -0.33    +0.159 HD
DOCKED: ENDBRANCH  44  45
DOCKED: ENDBRANCH  43  44
DOCKED: ENDBRANCH  42  43
DOCKED: BRANCH  42  50
DOCKED: ATOM     50  C   GLN P   7      12.158 -12.812   3.985 -0.11 -0.07    +0.241 C 
DOCKED: ATOM     51  O   GLN P   7      11.260 -12.075   3.607 +0.92 +0.11    -0.271 OA
DOCKED: ATOM     52  N   SER P   8      13.291 -12.343   4.482 -0.04 +0.07    -0.344 N 
DOCKED: ATOM     53  HN  SER P   8      13.946 -12.984   4.930 +0.08 -0.05    +0.163 HD
DOCKED: BRANCH  52  54
DOCKED: ATOM     54  CA  SER P   8      13.614 -10.941   4.399 -0.15 -0.01    +0.200 C 
DOCKED: BRANCH  54  55
DOCKED: ATOM     55  C   SER P   8      12.631 -10.279   5.348 -0.15 -0.04    +0.243 C 
DOCKED: ATOM     56  O   SER P   8      12.084  -9.216   5.057 -0.24 +0.03    -0.271 OA
DOCKED: ATOM     57  N   ARG P   9      12.377 -10.910   6.479 -0.09 +0.10    -0.346 N 
DOCKED: ATOM     58  HN  ARG P   9      12.684 -11.875   6.602 +0.07 -0.07    +0.163 HD
DOCKED: BRANCH  57  59
DOCKED: ATOM     59  CA  ARG P   9      11.671 -10.239   7.539 -0.18 -0.03    +0.172 C 
DOCKED: ATOM     60  CB  ARG P   9      12.037 -10.837   8.877 -0.25 -0.02    +0.042 C 
DOCKED: BRANCH  59  61
DOCKED: ATOM     61  C   ARG P   9      12.087  -8.780   7.463 -0.22 -0.03    +0.243 C 
DOCKED: ATOM     62  N   PRO P  10      13.364  -8.506   7.729 -0.04 +0.04    -0.336 N 
DOCKED: ATOM     63  CD  PRO P  10      14.173  -9.165   8.759 -0.03 -0.02    +0.127 C 
DOCKED: ATOM     64  CA  PRO P  10      14.054  -7.323   7.248 -0.07 -0.01    +0.188 C 
DOCKED: ATOM     65  CG  PRO P  10      14.755  -7.962   9.451 -0.03 -0.00    +0.022 C 
DOCKED: ATOM     66  CB  PRO P  10      14.695  -6.816   8.552 -0.05 -0.00    +0.038 C 
DOCKED: ATOM     67  O   ARG P   9      11.248  -7.897   7.277 -0.07 +0.02    -0.271 OA
DOCKED: BRANCH  64  68
DOCKED: ATOM     68  C   PRO P  10      15.136  -7.704   6.229 -0.03 -0.00    +0.196 C 
DOCKED: ATOM     69  O   PRO P  10      15.712  -6.848   5.538 +0.04 +0.00    -0.646 OA
DOCKED: ATOM     70  OXT PRO P  10      15.472  -8.884   6.072 +0.05 -0.02    -0.646 OA
DOCKED: ENDBRANCH  64  68
DOCKED: ENDBRANCH  59  61
DOCKED: ENDBRANCH  57  59
DOCKED: ENDBRANCH  54  55
DOCKED: BRANCH  54  71
DOCKED: ATOM     71  CB  SER P   8      13.415 -10.431   2.971 -0.26 +0.00    +0.199 C 
DOCKED: BRANCH  71  72
DOCKED: ATOM     72  OG  SER P   8      13.606  -9.030   2.878 +0.16 -0.03    -0.398 OA
DOCKED: ATOM     73  HG  SER P   8      13.674  -8.624   3.734 +0.09 +0.00    +0.209 HD
DOCKED: ENDBRANCH  71  72
DOCKED: ENDBRANCH  54  71
DOCKED: ENDBRANCH  52  54
DOCKED: ENDBRANCH  42  50
DOCKED: ENDBRANCH  40  42
DOCKED: ENDBRANCH   1  38
DOCKED: TORSDOF 26
DOCKED: TER
DOCKED: ENDMDL
________________________________________________________________________________


	BEGINNING GENETIC ALGORITHM DOCKING 6 of 10
Run: 6 Seed: 1179958132 1032603270 [ Run 6 of 10 GA/GALS ]
Beginning LAMARCKIAN GENETIC ALGORITHM (LGA), with a maximum of 2500000 energy evaluations.

Final-Value: -12.289


	FINAL GENETIC ALGORITHM DOCKED STATE
	_______________________________________________


Detailed state:  trans 12.599 -13.069 4.398 quatxyzw -0.471450 0.802473 -0.362786 -0.046451 center 9.642 -14.316 1.762 ntor 26 -103.6055 -9.9453 -166.3291 108.3970 113.4261 42.6724 79.1339 -23.8825 45.5911 175.3608 150.1366 -179.8279 -163.8533 -163.1532 105.4540 -179.6361 -157.3493 -134.7815 166.8142 -61.8610 -158.7595 -38.3133 -133.0563 7.9350 -155.7728 -158.8585
State:	 12.599 -13.069   4.398  -0.472  0.803 -0.363 -174.675   -103.61   -9.95 -166.33  108.40  113.43   42.67   79.13  -23.88   45.59  175.36  150.14 -179.83 -163.85 -163.15  105.45 -179.64 -157.35 -134.78  166.81  -61.86 -158.76  -38.31 -133.06    7.93 -155.77 -158.86

DOCKED: MODEL        6
DOCKED: USER    Run = 6
DOCKED: USER    DPF = dock.dpf
DOCKED: USER  
DOCKED: USER    Estimated Free Energy of Binding    =   -0.70 kcal/mol  [=(1)+(2)+(3)-(4)]
DOCKED: USER    Estimated Inhibition Constant, Ki   =  308.74 mM (millimolar)  [Temperature = 298.15 K]
DOCKED: USER    
DOCKED: USER    (1) Final Intermolecular Energy     =   -8.45 kcal/mol
DOCKED: USER        vdW + Hbond + desolv Energy     =   -8.69 kcal/mol
DOCKED: USER        Electrostatic Energy            =   +0.24 kcal/mol
DOCKED: USER    (2) Final Total Internal Energy     =   -3.84 kcal/mol
DOCKED: USER    (3) Torsional Free Energy           =   +7.76 kcal/mol
DOCKED: USER    (4) Unbound System's Energy  [=(2)] =   -3.84 kcal/mol
DOCKED: USER    
DOCKED: USER    
DOCKED: USER    NEWDPF move lig3d3t.pdbqt
DOCKED: USER    NEWDPF about 9.642000 -14.316000 1.762000
DOCKED: USER    NEWDPF tran0 12.598992 -13.068748 4.397634
DOCKED: USER    NEWDPF quaternion0 -0.471450 0.802473 -0.362786 -0.046451
DOCKED: USER    NEWDPF axisangle0 -0.471959 0.803340 -0.363179 -174.675181
DOCKED: USER    NEWDPF quat0 -0.471959 0.803340 -0.363179 -174.675181
DOCKED: USER    NEWDPF dihe0 -103.61 -9.95 -166.33 108.40 113.43 42.67 79.13 -23.88 45.59 175.36 150.14 -179.83 -163.85 -163.15 105.45 -179.64 -157.35 -134.78 166.81 -61.86 -158.76 -38.31 -133.06 7.93 -155.77 -158.86 
DOCKED: USER  keepresnum = 1 
DOCKED: USER  
DOCKED: REMARK  26 active torsions:
DOCKED: REMARK  status: ('A' for Active; 'I' for Inactive)
DOCKED: REMARK    1  A    between atoms: N_1  and  CA_5 
DOCKED: REMARK    2  A    between atoms: CA_5  and  C_6 
DOCKED: REMARK       I    between atoms: C_6  and  N_8 
DOCKED: REMARK    3  A    between atoms: N_8  and  CA_10 
DOCKED: REMARK    4  A    between atoms: CA_10  and  CB_13 
DOCKED: REMARK    5  A    between atoms: CA_10  and  C_11 
DOCKED: REMARK       I    between atoms: C_11  and  N_19 
DOCKED: REMARK    6  A    between atoms: CB_13  and  CG_14 
DOCKED: REMARK       I    between atoms: CG_14  and  ND2_15 
DOCKED: REMARK    7  A    between atoms: N_19  and  CA_21 
DOCKED: REMARK    8  A    between atoms: CA_21  and  CB_24 
DOCKED: REMARK    9  A    between atoms: CA_21  and  C_22 
DOCKED: REMARK       I    between atoms: C_22  and  N_31 
DOCKED: REMARK   10  A    between atoms: CB_24  and  CG_25 
DOCKED: REMARK   11  A    between atoms: N_31  and  CA_33 
DOCKED: REMARK   12  A    between atoms: CA_33  and  CB_36 
DOCKED: REMARK   13  A    between atoms: CA_33  and  C_34 
DOCKED: REMARK       I    between atoms: C_34  and  N_40 
DOCKED: REMARK   14  A    between atoms: CB_36  and  CG_37 
DOCKED: REMARK   15  A    between atoms: N_40  and  CA_42 
DOCKED: REMARK   16  A    between atoms: CA_42  and  CB_45 
DOCKED: REMARK   17  A    between atoms: CA_42  and  C_43 
DOCKED: REMARK       I    between atoms: C_43  and  N_52 
DOCKED: REMARK   18  A    between atoms: CB_45  and  CG_46 
DOCKED: REMARK   19  A    between atoms: CG_46  and  CD_47 
DOCKED: REMARK       I    between atoms: CD_47  and  NE2_48 
DOCKED: REMARK   20  A    between atoms: N_52  and  CA_54 
DOCKED: REMARK   21  A    between atoms: CA_54  and  C_55 
DOCKED: REMARK   22  A    between atoms: CA_54  and  CB_57 
DOCKED: REMARK       I    between atoms: C_55  and  N_60 
DOCKED: REMARK   23  A    between atoms: CB_57  and  OG_58 
DOCKED: REMARK   24  A    between atoms: N_60  and  CA_62 
DOCKED: REMARK   25  A    between atoms: CA_62  and  C_63 
DOCKED: REMARK       I    between atoms: C_63  and  N_66 
DOCKED: REMARK   26  A    between atoms: CA_67  and  C_68 
DOCKED: USER                              x       y       z     vdW  Elec       q    Type
DOCKED: USER                           _______ _______ _______ _____ _____    ______ ____
DOCKED: ROOT
DOCKED: ATOM      1  CA  LEU P   6      12.161 -13.618   6.369 -0.25 -0.11    +0.177 C 
DOCKED: ENDROOT
DOCKED: BRANCH   1   2
DOCKED: ATOM      2  N   LEU P   6      12.668 -12.424   7.015 -0.08 +0.22    -0.346 N 
DOCKED: ATOM      3  C   PHE P   5      13.967 -12.157   7.020 -0.07 -0.17    +0.241 C 
DOCKED: ATOM      4  O   PHE P   5      14.824 -13.011   6.785 +0.33 +0.34    -0.271 OA
DOCKED: ATOM      5  HN  LEU P   6      12.019 -11.783   7.471 +0.06 -0.08    +0.163 HD
DOCKED: BRANCH   3   6
DOCKED: ATOM      6  CA  PHE P   5      14.359 -10.712   7.320 -0.06 -0.05    +0.180 C 
DOCKED: BRANCH   6   7
DOCKED: ATOM      7  N   PHE P   5      13.986  -9.746   6.288 -0.00 +0.04    -0.346 N 
DOCKED: ATOM      8  C   ASN P   4      14.617  -8.579   6.188 -0.04 -0.01    +0.241 C 
DOCKED: ATOM      9  O   ASN P   4      15.613  -8.310   6.860 -0.01 +0.00    -0.271 OA
DOCKED: ATOM     10  HN  PHE P   5      13.233  -9.969   5.637 +0.07 -0.02    +0.163 HD
DOCKED: BRANCH   8  11
DOCKED: ATOM     11  CA  ASN P   4      14.036  -7.568   5.199 -0.11 -0.00    +0.185 C 
DOCKED: BRANCH  11  12
DOCKED: ATOM     12  N   ASN P   4      13.657  -8.221   3.947 -0.08 -0.00    -0.346 N 
DOCKED: ATOM     13  C   GLY P   3      14.126  -9.420   3.610 -0.15 +0.01    +0.243 C 
DOCKED: ATOM     14  O   GLY P   3      14.958 -10.022   4.288 -0.11 -0.04    -0.272 OA
DOCKED: ATOM     15  HN  ASN P   4      13.015  -7.744   3.313 +0.07 +0.00    +0.163 HD
DOCKED: BRANCH  13  16
DOCKED: ATOM     16  CA  GLY P   3      13.591 -10.025   2.327 +0.31 +0.03    +0.332 C 
DOCKED: BRANCH  16  17
DOCKED: ATOM     17  N   GLY P   3      14.720 -10.406   1.439 -0.05 -0.01    -0.071 N 
DOCKED: ATOM     18  HN3 GLY P   3      15.349 -11.076   1.884 +0.14 +0.07    +0.274 HD
DOCKED: ATOM     19  HN2 GLY P   3      14.414 -10.988   0.659 +0.15 +0.04    +0.274 HD
DOCKED: ATOM     20  HN1 GLY P   3      15.212  -9.570   1.124 +0.22 +0.06    +0.274 HD
DOCKED: ENDBRANCH  16  17
DOCKED: ENDBRANCH  13  16
DOCKED: ENDBRANCH  11  12
DOCKED: BRANCH  11  21
DOCKED: ATOM     21  CB  ASN P   4      12.837  -6.829   5.807 +0.01 -0.01    +0.137 C 
DOCKED: BRANCH  21  22
DOCKED: ATOM     22  CG  ASN P   4      12.395  -7.423   7.142 +0.01 -0.02    +0.217 C 
DOCKED: ATOM     23  OD1 ASN P   4      11.796  -8.500   7.189 -0.25 +0.02    -0.274 OA
DOCKED: ATOM     24  ND2 ASN P   4      12.692  -6.719   8.233 -0.04 +0.03    -0.370 N 
DOCKED: ATOM     25 2HD2 ASN P   4      13.187  -5.828   8.194 +0.02 -0.01    +0.159 HD
DOCKED: ATOM     26 1HD2 ASN P   4      12.397  -7.116   9.125 +0.04 -0.02    +0.159 HD
DOCKED: ENDBRANCH  21  22
DOCKED: ENDBRANCH  11  21
DOCKED: ENDBRANCH   8  11
DOCKED: ENDBRANCH   6   7
DOCKED: BRANCH   6  27
DOCKED: ATOM     27  CB  PHE P   5      13.857 -10.272   8.703 -0.07 -0.02    +0.073 C 
DOCKED: BRANCH  27  28
DOCKED: ATOM     28  CG  PHE P   5      13.436 -11.415   9.580 -0.09 +0.03    -0.056 A 
DOCKED: ATOM     29  CD1 PHE P   5      14.373 -12.332  10.046 -0.07 -0.01    +0.007 A 
DOCKED: ATOM     30  CE1 PHE P   5      13.991 -13.386  10.872 -0.16 -0.00    +0.001 A 
DOCKED: ATOM     31  CZ  PHE P   5      12.659 -13.534  11.244 -0.09 -0.00    +0.000 A 
DOCKED: ATOM     32  CE2 PHE P   5      11.708 -12.624  10.779 -0.20 -0.00    +0.001 A 
DOCKED: ATOM     33  CD2 PHE P   5      12.102 -11.569   9.951 -0.21 -0.00    +0.007 A 
DOCKED: ENDBRANCH  27  28
DOCKED: ENDBRANCH   6  27
DOCKED: ENDBRANCH   3   6
DOCKED: ENDBRANCH   1   2
DOCKED: BRANCH   1  34
DOCKED: ATOM     34  CB  LEU P   6      10.634 -13.572   6.277 -0.25 -0.02    +0.038 C 
DOCKED: BRANCH  34  35
DOCKED: ATOM     35  CG  LEU P   6       9.904 -14.920   6.240 -0.52 +0.01    -0.020 C 
DOCKED: ATOM     36  CD2 LEU P   6       8.399 -14.777   6.051 -0.45 -0.00    +0.009 C 
DOCKED: ATOM     37  CD1 LEU P   6      10.221 -15.717   7.478 -0.58 -0.01    +0.009 C 
DOCKED: ENDBRANCH  34  35
DOCKED: ENDBRANCH   1  34
DOCKED: BRANCH   1  38
DOCKED: ATOM     38  C   LEU P   6      12.746 -13.681   4.961 -0.18 -0.10    +0.241 C 
DOCKED: ATOM     39  O   LEU P   6      12.659 -14.701   4.288 -0.23 +0.10    -0.271 OA
DOCKED: ATOM     40  N   GLN P   7      13.351 -12.589   4.524 -0.04 +0.08    -0.346 N 
DOCKED: ATOM     41  HN  GLN P   7      13.320 -11.745   5.094 +0.07 -0.04    +0.163 HD
DOCKED: BRANCH  40  42
DOCKED: ATOM     42  CA  GLN P   7      14.057 -12.559   3.263 -0.20 +0.00    +0.177 C 
DOCKED: BRANCH  42  43
DOCKED: ATOM     43  CB  GLN P   7      15.363 -13.340   3.375 -0.34 +0.01    +0.044 C 
DOCKED: BRANCH  43  44
DOCKED: ATOM     44  CG  GLN P   7      15.394 -14.385   4.464 -0.36 -0.01    +0.105 C 
DOCKED: BRANCH  44  45
DOCKED: ATOM     45  CD  GLN P   7      14.991 -15.740   3.973 -0.37 -0.07    +0.215 C 
DOCKED: ATOM     46  OE1 GLN P   7      15.007 -16.010   2.777 +0.47 +0.04    -0.274 OA
DOCKED: ATOM     47  NE2 GLN P   7      14.626 -16.606   4.894 -0.04 +0.30    -0.370 N 
DOCKED: ATOM     48 2HE2 GLN P   7      14.351 -17.529   4.559 +0.10 -0.07    +0.159 HD
DOCKED: ATOM     49 1HE2 GLN P   7      14.612 -16.382   5.888 +0.06 -0.37    +0.159 HD
DOCKED: ENDBRANCH  44  45
DOCKED: ENDBRANCH  43  44
DOCKED: ENDBRANCH  42  43
DOCKED: BRANCH  42  50
DOCKED: ATOM     50  C   GLN P   7      13.164 -13.109   2.149 -0.19 -0.01    +0.241 C 
DOCKED: ATOM     51  O   GLN P   7      13.296 -14.248   1.728 -0.19 +0.03    -0.271 OA
DOCKED: ATOM     52  N   SER P   8      12.220 -12.298   1.701 -0.16 -0.00    -0.344 N 
DOCKED: ATOM     53  HN  SER P   8      12.042 -11.418   2.185 +0.08 +0.00    +0.163 HD
DOCKED: BRANCH  52  54
DOCKED: ATOM     54  CA  SER P   8      11.437 -12.640   0.539 -0.26 +0.02    +0.200 C 
DOCKED: BRANCH  54  55
DOCKED: ATOM     55  C   SER P   8      10.427 -13.647   1.059 -0.17 +0.03    +0.243 C 
DOCKED: ATOM     56  O   SER P   8       9.360 -13.835   0.476 -0.64 -0.08    -0.271 OA
DOCKED: ATOM     57  N   ARG P   9      10.761 -14.321   2.143 -0.11 +0.04    -0.346 N 
DOCKED: ATOM     58  HN  ARG P   9      11.722 -14.293   2.483 +0.08 -0.03    +0.163 HD
DOCKED: BRANCH  57  59
DOCKED: ATOM     59  CA  ARG P   9       9.772 -15.096   2.847 -0.31 -0.02    +0.172 C 
DOCKED: ATOM     60  CB  ARG P   9       8.424 -14.419   2.777 -0.30 +0.00    +0.042 C 
DOCKED: BRANCH  59  61
DOCKED: ATOM     61  C   ARG P   9       9.737 -16.452   2.162 -0.30 -0.03    +0.243 C 
DOCKED: ATOM     62  N   PRO P  10       9.100 -16.516   0.993 -0.14 +0.00    -0.336 N 
DOCKED: ATOM     63  CD  PRO P  10       7.865 -15.798   0.662 -0.34 +0.01    +0.127 C 
DOCKED: ATOM     64  CA  PRO P  10       9.364 -17.525  -0.017 -0.35 -0.01    +0.188 C 
DOCKED: ATOM     65  CG  PRO P  10       7.045 -16.924   0.096 -0.41 +0.00    +0.022 C 
DOCKED: ATOM     66  CB  PRO P  10       7.933 -18.001  -0.327 -0.25 -0.00    +0.038 C 
DOCKED: ATOM     67  O   ARG P   9      10.178 -17.453   2.728 -0.19 +0.06    -0.271 OA
DOCKED: BRANCH  64  68
DOCKED: ATOM     68  C   PRO P  10      10.002 -16.893  -1.260 -0.23 +0.00    +0.196 C 
DOCKED: ATOM     69  O   PRO P  10      10.055 -17.496  -2.345 -0.07 +0.08    -0.646 OA
DOCKED: ATOM     70  OXT PRO P  10      10.482 -15.754  -1.218 -0.29 -0.06    -0.646 OA
DOCKED: ENDBRANCH  64  68
DOCKED: ENDBRANCH  59  61
DOCKED: ENDBRANCH  57  59
DOCKED: ENDBRANCH  54  55
DOCKED: BRANCH  54  71
DOCKED: ATOM     71  CB  SER P   8      12.325 -13.268  -0.536 -0.24 +0.01    +0.199 C 
DOCKED: BRANCH  71  72
DOCKED: ATOM     72  OG  SER P   8      13.589 -12.633  -0.615 -0.25 -0.00    -0.398 OA
DOCKED: ATOM     73  HG  SER P   8      14.162 -12.893   0.096 +0.16 +0.01    +0.209 HD
DOCKED: ENDBRANCH  71  72
DOCKED: ENDBRANCH  54  71
DOCKED: ENDBRANCH  52  54
DOCKED: ENDBRANCH  42  50
DOCKED: ENDBRANCH  40  42
DOCKED: ENDBRANCH   1  38
DOCKED: TORSDOF 26
DOCKED: TER
DOCKED: ENDMDL
________________________________________________________________________________


	BEGINNING GENETIC ALGORITHM DOCKING 7 of 10
Run: 7 Seed: 1992904157 1257930813 [ Run 7 of 10 GA/GALS ]
Beginning LAMARCKIAN GENETIC ALGORITHM (LGA), with a maximum of 2500000 energy evaluations.

Final-Value: -12.219


	FINAL GENETIC ALGORITHM DOCKED STATE
	_______________________________________________


Detailed state:  trans 11.449 -14.225 4.436 quatxyzw -0.291417 -0.307514 -0.871193 0.248059 center 9.642 -14.316 1.762 ntor 26 -168.4820 40.6635 -128.3765 -59.2214 -22.4028 -47.3747 -144.0311 139.3075 64.3811 21.4248 162.4378 176.8239 177.4377 16.9549 -180.0000 -141.9338 -72.0488 146.6426 170.3551 170.7879 9.5022 145.3684 -107.3214 72.4978 -136.3388 146.4756
State:	 11.449 -14.225   4.436  -0.301 -0.317 -0.899 151.275   -168.48   40.66 -128.38  -59.22  -22.40  -47.37 -144.03  139.31   64.38   21.42  162.44  176.82  177.44   16.95 -180.00 -141.93  -72.05  146.64  170.36  170.79    9.50  145.37 -107.32   72.50 -136.34  146.48

DOCKED: MODEL        7
DOCKED: USER    Run = 7
DOCKED: USER    DPF = dock.dpf
DOCKED: USER  
DOCKED: USER    Estimated Free Energy of Binding    =   -0.10 kcal/mol  [=(1)+(2)+(3)-(4)]
DOCKED: USER    Estimated Inhibition Constant, Ki   =  842.72 mM (millimolar)  [Temperature = 298.15 K]
DOCKED: USER    
DOCKED: USER    (1) Final Intermolecular Energy     =   -7.86 kcal/mol
DOCKED: USER        vdW + Hbond + desolv Energy     =   -7.02 kcal/mol
DOCKED: USER        Electrostatic Energy            =   -0.84 kcal/mol
DOCKED: USER    (2) Final Total Internal Energy     =   -4.36 kcal/mol
DOCKED: USER    (3) Torsional Free Energy           =   +7.76 kcal/mol
DOCKED: USER    (4) Unbound System's Energy  [=(2)] =   -4.36 kcal/mol
DOCKED: USER    
DOCKED: USER    
DOCKED: USER    NEWDPF move lig3d3t.pdbqt
DOCKED: USER    NEWDPF about 9.642000 -14.316000 1.762000
DOCKED: USER    NEWDPF tran0 11.448738 -14.224820 4.435884
DOCKED: USER    NEWDPF quaternion0 -0.291417 -0.307514 -0.871193 0.248059
DOCKED: USER    NEWDPF axisangle0 -0.300819 -0.317435 -0.899301 151.274576
DOCKED: USER    NEWDPF quat0 -0.300819 -0.317435 -0.899301 151.274576
DOCKED: USER    NEWDPF dihe0 -168.48 40.66 -128.38 -59.22 -22.40 -47.37 -144.03 139.31 64.38 21.42 162.44 176.82 177.44 16.95 -180.00 -141.93 -72.05 146.64 170.36 170.79 9.50 145.37 -107.32 72.50 -136.34 146.48 
DOCKED: USER  keepresnum = 1 
DOCKED: USER  
DOCKED: REMARK  26 active torsions:
DOCKED: REMARK  status: ('A' for Active; 'I' for Inactive)
DOCKED: REMARK    1  A    between atoms: N_1  and  CA_5 
DOCKED: REMARK    2  A    between atoms: CA_5  and  C_6 
DOCKED: REMARK       I    between atoms: C_6  and  N_8 
DOCKED: REMARK    3  A    between atoms: N_8  and  CA_10 
DOCKED: REMARK    4  A    between atoms: CA_10  and  CB_13 
DOCKED: REMARK    5  A    between atoms: CA_10  and  C_11 
DOCKED: REMARK       I    between atoms: C_11  and  N_19 
DOCKED: REMARK    6  A    between atoms: CB_13  and  CG_14 
DOCKED: REMARK       I    between atoms: CG_14  and  ND2_15 
DOCKED: REMARK    7  A    between atoms: N_19  and  CA_21 
DOCKED: REMARK    8  A    between atoms: CA_21  and  CB_24 
DOCKED: REMARK    9  A    between atoms: CA_21  and  C_22 
DOCKED: REMARK       I    between atoms: C_22  and  N_31 
DOCKED: REMARK   10  A    between atoms: CB_24  and  CG_25 
DOCKED: REMARK   11  A    between atoms: N_31  and  CA_33 
DOCKED: REMARK   12  A    between atoms: CA_33  and  CB_36 
DOCKED: REMARK   13  A    between atoms: CA_33  and  C_34 
DOCKED: REMARK       I    between atoms: C_34  and  N_40 
DOCKED: REMARK   14  A    between atoms: CB_36  and  CG_37 
DOCKED: REMARK   15  A    between atoms: N_40  and  CA_42 
DOCKED: REMARK   16  A    between atoms: CA_42  and  CB_45 
DOCKED: REMARK   17  A    between atoms: CA_42  and  C_43 
DOCKED: REMARK       I    between atoms: C_43  and  N_52 
DOCKED: REMARK   18  A    between atoms: CB_45  and  CG_46 
DOCKED: REMARK   19  A    between atoms: CG_46  and  CD_47 
DOCKED: REMARK       I    between atoms: CD_47  and  NE2_48 
DOCKED: REMARK   20  A    between atoms: N_52  and  CA_54 
DOCKED: REMARK   21  A    between atoms: CA_54  and  C_55 
DOCKED: REMARK   22  A    between atoms: CA_54  and  CB_57 
DOCKED: REMARK       I    between atoms: C_55  and  N_60 
DOCKED: REMARK   23  A    between atoms: CB_57  and  OG_58 
DOCKED: REMARK   24  A    between atoms: N_60  and  CA_62 
DOCKED: REMARK   25  A    between atoms: CA_62  and  C_63 
DOCKED: REMARK       I    between atoms: C_63  and  N_66 
DOCKED: REMARK   26  A    between atoms: CA_67  and  C_68 
DOCKED: USER                              x       y       z     vdW  Elec       q    Type
DOCKED: USER                           _______ _______ _______ _____ _____    ______ ____
DOCKED: ROOT
DOCKED: ATOM      1  CA  LEU P   6       9.993 -13.268   3.277 +1.61 -0.04    +0.177 C 
DOCKED: ENDROOT
DOCKED: BRANCH   1   2
DOCKED: ATOM      2  N   LEU P   6      10.244 -13.974   2.036 -0.12 +0.00    -0.346 N 
DOCKED: ATOM      3  C   PHE P   5      11.230 -14.856   1.948 -0.18 -0.05    +0.241 C 
DOCKED: ATOM      4  O   PHE P   5      12.161 -14.898   2.755 -0.12 +0.10    -0.271 OA
DOCKED: ATOM      5  HN  LEU P   6       9.655 -13.792   1.223 +0.09 +0.03    +0.163 HD
DOCKED: BRANCH   3   6
DOCKED: ATOM      6  CA  PHE P   5      11.151 -15.847   0.788 -0.21 -0.03    +0.180 C 
DOCKED: BRANCH   6   7
DOCKED: ATOM      7  N   PHE P   5       9.820 -16.396   0.537 -0.15 +0.02    -0.346 N 
DOCKED: ATOM      8  C   ASN P   4       8.879 -15.660  -0.046 -0.22 +0.01    +0.241 C 
DOCKED: ATOM      9  O   ASN P   4       9.112 -14.545  -0.515 -0.36 -0.05    -0.271 OA
DOCKED: ATOM     10  HN  PHE P   5       9.610 -17.355   0.814 +0.09 -0.01    +0.163 HD
DOCKED: BRANCH   8  11
DOCKED: ATOM     11  CA  ASN P   4       7.473 -16.259  -0.100 -0.28 +0.01    +0.185 C 
DOCKED: BRANCH  11  12
DOCKED: ATOM     12  N   ASN P   4       7.006 -16.373  -1.480 -0.10 -0.00    -0.346 N 
DOCKED: ATOM     13  C   GLY P   3       7.690 -17.050  -2.399 -0.13 -0.05    +0.243 C 
DOCKED: ATOM     14  O   GLY P   3       8.787 -17.558  -2.170 +0.10 +0.08    -0.272 OA
DOCKED: ATOM     15  HN  ASN P   4       6.131 -15.922  -1.747 +0.08 +0.02    +0.163 HD
DOCKED: BRANCH  13  16
DOCKED: ATOM     16  CA  GLY P   3       7.057 -17.165  -3.771 -0.15 -0.09    +0.332 C 
DOCKED: BRANCH  16  17
DOCKED: ATOM     17  N   GLY P   3       6.344 -18.464  -3.891 -0.25 +0.02    -0.071 N 
DOCKED: ATOM     18  HN3 GLY P   3       6.986 -19.241  -4.047 -0.26 -0.14    +0.274 HD
DOCKED: ATOM     19  HN2 GLY P   3       5.955 -18.770  -2.999 +0.07 -0.06    +0.274 HD
DOCKED: ATOM     20  HN1 GLY P   3       5.632 -18.403  -4.620 +0.15 -0.10    +0.274 HD
DOCKED: ENDBRANCH  16  17
DOCKED: ENDBRANCH  13  16
DOCKED: ENDBRANCH  11  12
DOCKED: BRANCH  11  21
DOCKED: ATOM     21  CB  ASN P   4       7.429 -17.624   0.600 -0.26 +0.01    +0.137 C 
DOCKED: BRANCH  21  22
DOCKED: ATOM     22  CG  ASN P   4       6.198 -18.441   0.217 -0.29 +0.01    +0.217 C 
DOCKED: ATOM     23  OD1 ASN P   4       6.220 -19.205  -0.751 -0.27 +0.01    -0.274 OA
DOCKED: ATOM     24  ND2 ASN P   4       5.118 -18.282   0.980 -0.13 +0.00    -0.370 N 
DOCKED: ATOM     25 2HD2 ASN P   4       5.100 -17.650   1.781 +0.11 -0.01    +0.159 HD
DOCKED: ATOM     26 1HD2 ASN P   4       4.295 -18.828   0.725 +0.09 -0.00    +0.159 HD
DOCKED: ENDBRANCH  21  22
DOCKED: ENDBRANCH  11  21
DOCKED: ENDBRANCH   8  11
DOCKED: ENDBRANCH   6   7
DOCKED: BRANCH   6  27
DOCKED: ATOM     27  CB  PHE P   5      11.761 -15.257  -0.492 -0.27 +0.00    +0.073 C 
DOCKED: BRANCH  27  28
DOCKED: ATOM     28  CG  PHE P   5      12.216 -13.834  -0.340 -0.32 -0.00    -0.056 A 
DOCKED: ATOM     29  CD1 PHE P   5      13.426 -13.541   0.280 -0.37 +0.00    +0.007 A 
DOCKED: ATOM     30  CE1 PHE P   5      13.861 -12.225   0.411 +0.24 +0.00    +0.001 A 
DOCKED: ATOM     31  CZ  PHE P   5      13.085 -11.181  -0.082 -0.44 +0.00    +0.000 A 
DOCKED: ATOM     32  CE2 PHE P   5      11.866 -11.461  -0.703 -0.08 +0.00    +0.001 A 
DOCKED: ATOM     33  CD2 PHE P   5      11.440 -12.787  -0.830 -0.36 +0.00    +0.007 A 
DOCKED: ENDBRANCH  27  28
DOCKED: ENDBRANCH   6  27
DOCKED: ENDBRANCH   3   6
DOCKED: ENDBRANCH   1   2
DOCKED: BRANCH   1  34
DOCKED: ATOM     34  CB  LEU P   6       8.752 -13.832   3.973 -0.22 -0.01    +0.038 C 
DOCKED: BRANCH  34  35
DOCKED: ATOM     35  CG  LEU P   6       8.965 -14.474   5.350 -0.48 +0.01    -0.020 C 
DOCKED: ATOM     36  CD2 LEU P   6       8.433 -15.899   5.429 -0.29 -0.00    +0.009 C 
DOCKED: ATOM     37  CD1 LEU P   6       8.364 -13.610   6.426 -0.10 -0.00    +0.009 C 
DOCKED: ENDBRANCH  34  35
DOCKED: ENDBRANCH   1  34
DOCKED: BRANCH   1  38
DOCKED: ATOM     38  C   LEU P   6      11.204 -13.456   4.184 +0.07 -0.09    +0.241 C 
DOCKED: ATOM     39  O   LEU P   6      11.926 -12.510   4.474 -0.06 +0.11    -0.271 OA
DOCKED: ATOM     40  N   GLN P   7      11.428 -14.683   4.623 -0.13 +0.12    -0.346 N 
DOCKED: ATOM     41  HN  GLN P   7      10.748 -15.414   4.419 +0.09 -0.04    +0.163 HD
DOCKED: BRANCH  40  42
DOCKED: ATOM     42  CA  GLN P   7      12.611 -15.020   5.383 -0.25 -0.08    +0.177 C 
DOCKED: BRANCH  42  43
DOCKED: ATOM     43  CB  GLN P   7      13.862 -14.576   4.629 -0.37 -0.02    +0.044 C 
DOCKED: BRANCH  43  44
DOCKED: ATOM     44  CG  GLN P   7      15.125 -15.319   4.988 +0.26 -0.09    +0.105 C 
DOCKED: BRANCH  44  45
DOCKED: ATOM     45  CD  GLN P   7      15.338 -16.534   4.141 -0.41 -0.07    +0.215 C 
DOCKED: ATOM     46  OE1 GLN P   7      15.047 -16.534   2.950 +0.80 +0.05    -0.274 OA
DOCKED: ATOM     47  NE2 GLN P   7      15.850 -17.583   4.749 -0.35 +0.10    -0.370 N 
DOCKED: ATOM     48 2HE2 GLN P   7      15.995 -18.411   4.172 +0.01 +0.01    +0.159 HD
DOCKED: ATOM     49 1HE2 GLN P   7      16.092 -17.583   5.740 -0.46 -0.14    +0.159 HD
DOCKED: ENDBRANCH  44  45
DOCKED: ENDBRANCH  43  44
DOCKED: ENDBRANCH  42  43
DOCKED: BRANCH  42  50
DOCKED: ATOM     50  C   GLN P   7      12.538 -14.389   6.775 -0.07 -0.20    +0.241 C 
DOCKED: ATOM     51  O   GLN P   7      11.916 -14.917   7.684 -0.49 +0.25    -0.271 OA
DOCKED: ATOM     52  N   SER P   8      13.217 -13.267   6.946 -0.03 +0.35    -0.344 N 
DOCKED: ATOM     53  HN  SER P   8      13.847 -12.944   6.211 +0.05 -0.12    +0.163 HD
DOCKED: BRANCH  52  54
DOCKED: ATOM     54  CA  SER P   8      13.081 -12.492   8.154 -0.11 -0.18    +0.200 C 
DOCKED: BRANCH  54  55
DOCKED: ATOM     55  C   SER P   8      12.425 -11.203   7.694 -0.15 -0.10    +0.243 C 
DOCKED: ATOM     56  O   SER P   8      11.841 -10.468   8.489 -0.32 +0.07    -0.271 OA
DOCKED: ATOM     57  N   ARG P   9      12.534 -10.902   6.414 -0.08 +0.10    -0.346 N 
DOCKED: ATOM     58  HN  ARG P   9      13.188 -11.418   5.824 +0.07 -0.05    +0.163 HD
DOCKED: BRANCH  57  59
DOCKED: ATOM     59  CA  ARG P   9      11.732  -9.850   5.846 +0.09 -0.03    +0.172 C 
DOCKED: ATOM     60  CB  ARG P   9      11.851  -8.592   6.672 -0.34 -0.00    +0.042 C 
DOCKED: BRANCH  59  61
DOCKED: ATOM     61  C   ARG P   9      12.265  -9.630   4.440 -0.20 -0.03    +0.243 C 
DOCKED: ATOM     62  N   PRO P  10      13.586  -9.702   4.281 -0.07 +0.01    -0.336 N 
DOCKED: ATOM     63  CD  PRO P  10      14.581  -9.202   5.236 -0.10 +0.00    +0.127 C 
DOCKED: ATOM     64  CA  PRO P  10      14.233 -10.012   3.019 -0.22 +0.02    +0.188 C 
DOCKED: ATOM     65  CG  PRO P  10      15.463  -8.409   4.312 -0.17 +0.00    +0.022 C 
DOCKED: ATOM     66  CB  PRO P  10      15.272  -8.879   2.945 -0.10 +0.00    +0.038 C 
DOCKED: ATOM     67  O   ARG P   9      11.509  -9.289   3.528 -0.27 +0.03    -0.271 OA
DOCKED: BRANCH  64  68
DOCKED: ATOM     68  C   PRO P  10      14.930 -11.377   3.090 -0.24 +0.04    +0.196 C 
DOCKED: ATOM     69  O   PRO P  10      16.129 -11.514   2.797 -0.03 -0.42    -0.646 OA
DOCKED: ATOM     70  OXT PRO P  10      14.312 -12.387   3.448 +0.05 -0.04    -0.646 OA
DOCKED: ENDBRANCH  64  68
DOCKED: ENDBRANCH  59  61
DOCKED: ENDBRANCH  57  59
DOCKED: ENDBRANCH  54  55
DOCKED: BRANCH  54  71
DOCKED: ATOM     71  CB  SER P   8      14.454 -12.213   8.765 +0.25 -0.21    +0.199 C 
DOCKED: BRANCH  71  72
DOCKED: ATOM     72  OG  SER P   8      14.457 -11.026   9.538 -0.01 +0.19    -0.398 OA
DOCKED: ATOM     73  HG  SER P   8      13.578 -10.700   9.691 +0.05 -0.09    +0.209 HD
DOCKED: ENDBRANCH  71  72
DOCKED: ENDBRANCH  54  71
DOCKED: ENDBRANCH  52  54
DOCKED: ENDBRANCH  42  50
DOCKED: ENDBRANCH  40  42
DOCKED: ENDBRANCH   1  38
DOCKED: TORSDOF 26
DOCKED: TER
DOCKED: ENDMDL
________________________________________________________________________________


	BEGINNING GENETIC ALGORITHM DOCKING 8 of 10
Run: 8 Seed: 586816282 497683222 [ Run 8 of 10 GA/GALS ]
Beginning LAMARCKIAN GENETIC ALGORITHM (LGA), with a maximum of 2500000 energy evaluations.

Final-Value: -10.413


	FINAL GENETIC ALGORITHM DOCKED STATE
	_______________________________________________


Detailed state:  trans 11.413 -11.747 7.421 quatxyzw 0.221612 0.406324 0.683608 0.564330 center 9.642 -14.316 1.762 ntor 26 -120.6157 -131.0742 155.0017 -148.2681 -179.2752 -92.7625 155.7829 179.2862 -43.9141 -52.4730 -178.7837 -18.7456 49.8727 -55.3524 179.7963 155.4141 -179.9397 -102.5735 -91.9738 108.5867 -179.8274 -7.6233 -17.6215 -63.8953 151.3872 16.1649
State:	 11.413 -11.747   7.421   0.268  0.492  0.828 111.288   -120.62 -131.07  155.00 -148.27 -179.28  -92.76  155.78  179.29  -43.91  -52.47 -178.78  -18.75   49.87  -55.35  179.80  155.41 -179.94 -102.57  -91.97  108.59 -179.83   -7.62  -17.62  -63.90  151.39   16.16

DOCKED: MODEL        8
DOCKED: USER    Run = 8
DOCKED: USER    DPF = dock.dpf
DOCKED: USER  
DOCKED: USER    Estimated Free Energy of Binding    =   +2.81 kcal/mol  [=(1)+(2)+(3)-(4)]
DOCKED: USER    
DOCKED: USER    (1) Final Intermolecular Energy     =   -4.94 kcal/mol
DOCKED: USER        vdW + Hbond + desolv Energy     =   -5.19 kcal/mol
DOCKED: USER        Electrostatic Energy            =   +0.25 kcal/mol
DOCKED: USER    (2) Final Total Internal Energy     =   -5.47 kcal/mol
DOCKED: USER    (3) Torsional Free Energy           =   +7.76 kcal/mol
DOCKED: USER    (4) Unbound System's Energy  [=(2)] =   -5.47 kcal/mol
DOCKED: USER    
DOCKED: USER    
DOCKED: USER    NEWDPF move lig3d3t.pdbqt
DOCKED: USER    NEWDPF about 9.642000 -14.316000 1.762000
DOCKED: USER    NEWDPF tran0 11.413149 -11.746897 7.420752
DOCKED: USER    NEWDPF quaternion0 0.221612 0.406324 0.683608 0.564330
DOCKED: USER    NEWDPF axisangle0 0.268442 0.492187 0.828064 111.288449
DOCKED: USER    NEWDPF quat0 0.268442 0.492187 0.828064 111.288449
DOCKED: USER    NEWDPF dihe0 -120.62 -131.07 155.00 -148.27 -179.28 -92.76 155.78 179.29 -43.91 -52.47 -178.78 -18.75 49.87 -55.35 179.80 155.41 -179.94 -102.57 -91.97 108.59 -179.83 -7.62 -17.62 -63.90 151.39 16.16 
DOCKED: USER  keepresnum = 1 
DOCKED: USER  
DOCKED: REMARK  26 active torsions:
DOCKED: REMARK  status: ('A' for Active; 'I' for Inactive)
DOCKED: REMARK    1  A    between atoms: N_1  and  CA_5 
DOCKED: REMARK    2  A    between atoms: CA_5  and  C_6 
DOCKED: REMARK       I    between atoms: C_6  and  N_8 
DOCKED: REMARK    3  A    between atoms: N_8  and  CA_10 
DOCKED: REMARK    4  A    between atoms: CA_10  and  CB_13 
DOCKED: REMARK    5  A    between atoms: CA_10  and  C_11 
DOCKED: REMARK       I    between atoms: C_11  and  N_19 
DOCKED: REMARK    6  A    between atoms: CB_13  and  CG_14 
DOCKED: REMARK       I    between atoms: CG_14  and  ND2_15 
DOCKED: REMARK    7  A    between atoms: N_19  and  CA_21 
DOCKED: REMARK    8  A    between atoms: CA_21  and  CB_24 
DOCKED: REMARK    9  A    between atoms: CA_21  and  C_22 
DOCKED: REMARK       I    between atoms: C_22  and  N_31 
DOCKED: REMARK   10  A    between atoms: CB_24  and  CG_25 
DOCKED: REMARK   11  A    between atoms: N_31  and  CA_33 
DOCKED: REMARK   12  A    between atoms: CA_33  and  CB_36 
DOCKED: REMARK   13  A    between atoms: CA_33  and  C_34 
DOCKED: REMARK       I    between atoms: C_34  and  N_40 
DOCKED: REMARK   14  A    between atoms: CB_36  and  CG_37 
DOCKED: REMARK   15  A    between atoms: N_40  and  CA_42 
DOCKED: REMARK   16  A    between atoms: CA_42  and  CB_45 
DOCKED: REMARK   17  A    between atoms: CA_42  and  C_43 
DOCKED: REMARK       I    between atoms: C_43  and  N_52 
DOCKED: REMARK   18  A    between atoms: CB_45  and  CG_46 
DOCKED: REMARK   19  A    between atoms: CG_46  and  CD_47 
DOCKED: REMARK       I    between atoms: CD_47  and  NE2_48 
DOCKED: REMARK   20  A    between atoms: N_52  and  CA_54 
DOCKED: REMARK   21  A    between atoms: CA_54  and  C_55 
DOCKED: REMARK   22  A    between atoms: CA_54  and  CB_57 
DOCKED: REMARK       I    between atoms: C_55  and  N_60 
DOCKED: REMARK   23  A    between atoms: CB_57  and  OG_58 
DOCKED: REMARK   24  A    between atoms: N_60  and  CA_62 
DOCKED: REMARK   25  A    between atoms: CA_62  and  C_63 
DOCKED: REMARK       I    between atoms: C_63  and  N_66 
DOCKED: REMARK   26  A    between atoms: CA_67  and  C_68 
DOCKED: USER                              x       y       z     vdW  Elec       q    Type
DOCKED: USER                           _______ _______ _______ _____ _____    ______ ____
DOCKED: ROOT
DOCKED: ATOM      1  CA  LEU P   6      10.276 -13.495   7.248 -0.38 -0.11    +0.177 C 
DOCKED: ENDROOT
DOCKED: BRANCH   1   2
DOCKED: ATOM      2  N   LEU P   6      10.293 -13.590   5.801 +0.14 +0.19    -0.346 N 
DOCKED: ATOM      3  C   PHE P   5       9.206 -13.955   5.135 +0.05 -0.10    +0.241 C 
DOCKED: ATOM      4  O   PHE P   5       8.257 -14.530   5.671 -0.30 +0.07    -0.271 OA
DOCKED: ATOM      5  HN  LEU P   6      11.149 -13.373   5.291 -0.16 -0.09    +0.163 HD
DOCKED: BRANCH   3   6
DOCKED: ATOM      6  CA  PHE P   5       9.178 -13.612   3.646 +0.44 -0.04    +0.180 C 
DOCKED: BRANCH   6   7
DOCKED: ATOM      7  N   PHE P   5      10.392 -13.960   2.911 -0.13 +0.05    -0.346 N 
DOCKED: ATOM      8  C   ASN P   4      11.315 -14.746   3.456 -0.20 -0.07    +0.241 C 
DOCKED: ATOM      9  O   ASN P   4      11.141 -15.317   4.533 -0.28 +0.08    -0.271 OA
DOCKED: ATOM     10  HN  PHE P   5      10.534 -13.595   1.969 +0.09 +0.00    +0.163 HD
DOCKED: BRANCH   8  11
DOCKED: ATOM     11  CA  ASN P   4      12.626 -14.904   2.684 +0.55 -0.07    +0.185 C 
DOCKED: BRANCH  11  12
DOCKED: ATOM     12  N   ASN P   4      12.511 -14.340   1.339 -0.10 +0.04    -0.346 N 
DOCKED: ATOM     13  C   GLY P   3      12.153 -13.075   1.137 -0.26 +0.00    +0.243 C 
DOCKED: ATOM     14  O   GLY P   3      11.827 -12.322   2.055 -0.23 +0.00    -0.272 OA
DOCKED: ATOM     15  HN  ASN P   4      12.710 -14.933   0.534 +0.06 -0.02    +0.163 HD
DOCKED: BRANCH  13  16
DOCKED: ATOM     16  CA  GLY P   3      12.153 -12.588  -0.298 -0.34 +0.02    +0.332 C 
DOCKED: BRANCH  16  17
DOCKED: ATOM     17  N   GLY P   3      12.285 -11.108  -0.330 -0.42 -0.01    -0.071 N 
DOCKED: ATOM     18  HN3 GLY P   3      13.063 -10.805  -0.916 +0.15 +0.05    +0.274 HD
DOCKED: ATOM     19  HN2 GLY P   3      11.527 -10.667  -0.850 +0.22 +0.07    +0.274 HD
DOCKED: ATOM     20  HN1 GLY P   3      12.359 -10.746   0.622 +0.17 +0.03    +0.274 HD
DOCKED: ENDBRANCH  16  17
DOCKED: ENDBRANCH  13  16
DOCKED: ENDBRANCH  11  12
DOCKED: BRANCH  11  21
DOCKED: ATOM     21  CB  ASN P   4      13.794 -14.258   3.442 -0.26 -0.03    +0.137 C 
DOCKED: BRANCH  21  22
DOCKED: ATOM     22  CG  ASN P   4      14.931 -15.239   3.715 -0.35 -0.04    +0.217 C 
DOCKED: ATOM     23  OD1 ASN P   4      16.096 -14.954   3.431 -0.32 -0.10    -0.274 OA
DOCKED: ATOM     24  ND2 ASN P   4      14.593 -16.402   4.271 -0.12 +0.20    -0.370 N 
DOCKED: ATOM     25 2HD2 ASN P   4      13.628 -16.637   4.506 -0.23 -0.08    +0.159 HD
DOCKED: ATOM     26 1HD2 ASN P   4      15.352 -17.058   4.453 +0.02 -0.07    +0.159 HD
DOCKED: ENDBRANCH  21  22
DOCKED: ENDBRANCH  11  21
DOCKED: ENDBRANCH   8  11
DOCKED: ENDBRANCH   6   7
DOCKED: BRANCH   6  27
DOCKED: ATOM     27  CB  PHE P   5       7.929 -14.189   2.965 +1.14 +0.00    +0.073 C 
DOCKED: BRANCH  27  28
DOCKED: ATOM     28  CG  PHE P   5       8.228 -14.940   1.699 -0.35 -0.01    -0.056 A 
DOCKED: ATOM     29  CD1 PHE P   5       8.331 -16.327   1.708 -0.37 +0.00    +0.007 A 
DOCKED: ATOM     30  CE1 PHE P   5       8.593 -17.031   0.535 -0.36 +0.00    +0.001 A 
DOCKED: ATOM     31  CZ  PHE P   5       8.755 -16.349  -0.666 -0.33 +0.00    +0.000 A 
DOCKED: ATOM     32  CE2 PHE P   5       8.658 -14.956  -0.688 -0.38 +0.00    +0.001 A 
DOCKED: ATOM     33  CD2 PHE P   5       8.394 -14.260   0.496 -0.45 +0.00    +0.007 A 
DOCKED: ENDBRANCH  27  28
DOCKED: ENDBRANCH   6  27
DOCKED: ENDBRANCH   3   6
DOCKED: ENDBRANCH   1   2
DOCKED: BRANCH   1  34
DOCKED: ATOM     34  CB  LEU P   6      11.280 -14.473   7.861 -0.43 -0.04    +0.038 C 
DOCKED: BRANCH  34  35
DOCKED: ATOM     35  CG  LEU P   6      12.766 -14.129   7.697 +0.57 +0.03    -0.020 C 
DOCKED: ATOM     36  CD2 LEU P   6      13.154 -12.826   8.384 -0.07 -0.01    +0.009 C 
DOCKED: ATOM     37  CD1 LEU P   6      13.136 -14.105   6.238 -0.18 -0.01    +0.009 C 
DOCKED: ENDBRANCH  34  35
DOCKED: ENDBRANCH   1  34
DOCKED: BRANCH   1  38
DOCKED: ATOM     38  C   LEU P   6      10.663 -12.071   7.635 -0.03 -0.09    +0.241 C 
DOCKED: ATOM     39  O   LEU P   6      11.222 -11.331   6.836 -0.59 +0.08    -0.271 OA
DOCKED: ATOM     40  N   GLN P   7      10.371 -11.696   8.870 +0.19 +0.12    -0.346 N 
DOCKED: ATOM     41  HN  GLN P   7       9.831 -12.324   9.463 +0.12 -0.11    +0.163 HD
DOCKED: BRANCH  40  42
DOCKED: ATOM     42  CA  GLN P   7      10.797 -10.421   9.402 -0.10 -0.05    +0.177 C 
DOCKED: BRANCH  42  43
DOCKED: ATOM     43  CB  GLN P   7      11.569 -10.629  10.703 -0.25 -0.02    +0.044 C 
DOCKED: BRANCH  43  44
DOCKED: ATOM     44  CG  GLN P   7      12.884  -9.896  10.793 -0.08 -0.03    +0.105 C 
DOCKED: BRANCH  44  45
DOCKED: ATOM     45  CD  GLN P   7      14.062 -10.805  10.635 -0.02 -0.09    +0.215 C 
DOCKED: ATOM     46  OE1 GLN P   7      14.365 -11.606  11.512 -0.02 +0.13    -0.274 OA
DOCKED: ATOM     47  NE2 GLN P   7      14.739 -10.690   9.512 +0.01 +0.14    -0.370 N 
DOCKED: ATOM     48 2HE2 GLN P   7      15.542 -11.309   9.405 +0.02 -0.08    +0.159 HD
DOCKED: ATOM     49 1HE2 GLN P   7      14.487 -10.023   8.782 +0.03 -0.04    +0.159 HD
DOCKED: ENDBRANCH  44  45
DOCKED: ENDBRANCH  43  44
DOCKED: ENDBRANCH  42  43
DOCKED: BRANCH  42  50
DOCKED: ATOM     50  C   GLN P   7      11.634  -9.672   8.364 -0.24 -0.04    +0.241 C 
DOCKED: ATOM     51  O   GLN P   7      12.758 -10.043   8.060 -0.09 +0.07    -0.271 OA
DOCKED: ATOM     52  N   SER P   8      11.058  -8.630   7.788 -0.17 +0.03    -0.344 N 
DOCKED: ATOM     53  HN  SER P   8      10.068  -8.448   7.954 +0.06 -0.01    +0.163 HD
DOCKED: BRANCH  52  54
DOCKED: ATOM     54  CA  SER P   8      11.807  -7.747   6.929 +0.23 -0.02    +0.200 C 
DOCKED: BRANCH  54  55
DOCKED: ATOM     55  C   SER P   8      12.366  -8.663   5.856 -0.22 -0.02    +0.243 C 
DOCKED: ATOM     56  O   SER P   8      13.539  -9.032   5.884 -0.07 +0.02    -0.271 OA
DOCKED: ATOM     57  N   ARG P   9      11.531  -9.059   4.915 +0.01 +0.03    -0.346 N 
DOCKED: ATOM     58  HN  ARG P   9      10.528  -8.906   5.028 +0.27 +0.02    +0.163 HD
DOCKED: BRANCH  57  59
DOCKED: ATOM     59  CA  ARG P   9      12.029  -9.706   3.729 -0.25 -0.02    +0.172 C 
DOCKED: ATOM     60  CB  ARG P   9      13.033  -8.823   3.028 +0.05 +0.00    +0.042 C 
DOCKED: BRANCH  59  61
DOCKED: ATOM     61  C   ARG P   9      12.676 -10.999   4.198 -0.15 -0.04    +0.243 C 
DOCKED: ATOM     62  N   PRO P  10      14.006 -11.008   4.283 -0.05 +0.00    -0.336 N 
DOCKED: ATOM     63  CD  PRO P  10      14.918 -10.349   3.342 -0.25 +0.02    +0.127 C 
DOCKED: ATOM     64  CA  PRO P  10      14.755 -11.908   5.140 -0.15 -0.00    +0.188 C 
DOCKED: ATOM     65  CG  PRO P  10      15.873 -11.477   3.063 -0.07 +0.01    +0.022 C 
DOCKED: ATOM     66  CB  PRO P  10      15.795 -12.451   4.144 +0.22 +0.02    +0.038 C 
DOCKED: ATOM     67  O   ARG P   9      11.997 -12.012   4.374 -0.05 +0.10    -0.271 OA
DOCKED: BRANCH  64  68
DOCKED: ATOM     68  C   PRO P  10      15.445 -11.132   6.270 -0.09 +0.01    +0.196 C 
DOCKED: ATOM     69  O   PRO P  10      15.774 -11.683   7.333 -0.01 +0.21    -0.646 OA
DOCKED: ATOM     70  OXT PRO P  10      15.698  -9.928   6.149 -0.01 -0.07    -0.646 OA
DOCKED: ENDBRANCH  64  68
DOCKED: ENDBRANCH  59  61
DOCKED: ENDBRANCH  57  59
DOCKED: ENDBRANCH  54  55
DOCKED: BRANCH  54  71
DOCKED: ATOM     71  CB  SER P   8      12.937  -7.076   7.711 -0.09 -0.02    +0.199 C 
DOCKED: BRANCH  71  72
DOCKED: ATOM     72  OG  SER P   8      13.894  -8.015   8.168 -0.02 +0.04    -0.398 OA
DOCKED: ATOM     73  HG  SER P   8      14.290  -8.495   7.450 +0.04 -0.02    +0.209 HD
DOCKED: ENDBRANCH  71  72
DOCKED: ENDBRANCH  54  71
DOCKED: ENDBRANCH  52  54
DOCKED: ENDBRANCH  42  50
DOCKED: ENDBRANCH  40  42
DOCKED: ENDBRANCH   1  38
DOCKED: TORSDOF 26
DOCKED: TER
DOCKED: ENDMDL
________________________________________________________________________________


	BEGINNING GENETIC ALGORITHM DOCKING 9 of 10
Run: 9 Seed: 137194870 1459853982 [ Run 9 of 10 GA/GALS ]
Beginning LAMARCKIAN GENETIC ALGORITHM (LGA), with a maximum of 2500000 energy evaluations.

Final-Value: -11.226


	FINAL GENETIC ALGORITHM DOCKED STATE
	_______________________________________________


Detailed state:  trans 13.296 -14.919 3.746 quatxyzw 0.591673 0.346141 -0.686210 -0.243362 center 9.642 -14.316 1.762 ntor 26 92.3756 -128.2803 152.5780 -38.6255 144.7247 58.2331 -70.2578 -46.2836 -11.5928 -171.3677 11.8762 -120.1267 -58.1162 -145.7477 179.7516 52.2437 180.0000 36.0838 23.7478 -154.3458 -83.5700 -48.9574 -179.4707 -162.0005 7.7406 -45.9051
State:	 13.296 -14.919   3.746   0.610  0.357 -0.707 -151.830     92.38 -128.28  152.58  -38.63  144.72   58.23  -70.26  -46.28  -11.59 -171.37   11.88 -120.13  -58.12 -145.75  179.75   52.24  180.00   36.08   23.75 -154.35  -83.57  -48.96 -179.47 -162.00    7.74  -45.91

DOCKED: MODEL        9
DOCKED: USER    Run = 9
DOCKED: USER    DPF = dock.dpf
DOCKED: USER  
DOCKED: USER    Estimated Free Energy of Binding    =   -1.36 kcal/mol  [=(1)+(2)+(3)-(4)]
DOCKED: USER    Estimated Inhibition Constant, Ki   =  100.75 mM (millimolar)  [Temperature = 298.15 K]
DOCKED: USER    
DOCKED: USER    (1) Final Intermolecular Energy     =   -9.12 kcal/mol
DOCKED: USER        vdW + Hbond + desolv Energy     =   -9.09 kcal/mol
DOCKED: USER        Electrostatic Energy            =   -0.03 kcal/mol
DOCKED: USER    (2) Final Total Internal Energy     =   -2.11 kcal/mol
DOCKED: USER    (3) Torsional Free Energy           =   +7.76 kcal/mol
DOCKED: USER    (4) Unbound System's Energy  [=(2)] =   -2.11 kcal/mol
DOCKED: USER    
DOCKED: USER    
DOCKED: USER    NEWDPF move lig3d3t.pdbqt
DOCKED: USER    NEWDPF about 9.642000 -14.316000 1.762000
DOCKED: USER    NEWDPF tran0 13.295893 -14.919388 3.745544
DOCKED: USER    NEWDPF quaternion0 0.591673 0.346141 -0.686210 -0.243362
DOCKED: USER    NEWDPF axisangle0 0.610013 0.356871 -0.707480 -151.829865
DOCKED: USER    NEWDPF quat0 0.610013 0.356871 -0.707480 -151.829865
DOCKED: USER    NEWDPF dihe0 92.38 -128.28 152.58 -38.63 144.72 58.23 -70.26 -46.28 -11.59 -171.37 11.88 -120.13 -58.12 -145.75 179.75 52.24 180.00 36.08 23.75 -154.35 -83.57 -48.96 -179.47 -162.00 7.74 -45.91 
DOCKED: USER  keepresnum = 1 
DOCKED: USER  
DOCKED: REMARK  26 active torsions:
DOCKED: REMARK  status: ('A' for Active; 'I' for Inactive)
DOCKED: REMARK    1  A    between atoms: N_1  and  CA_5 
DOCKED: REMARK    2  A    between atoms: CA_5  and  C_6 
DOCKED: REMARK       I    between atoms: C_6  and  N_8 
DOCKED: REMARK    3  A    between atoms: N_8  and  CA_10 
DOCKED: REMARK    4  A    between atoms: CA_10  and  CB_13 
DOCKED: REMARK    5  A    between atoms: CA_10  and  C_11 
DOCKED: REMARK       I    between atoms: C_11  and  N_19 
DOCKED: REMARK    6  A    between atoms: CB_13  and  CG_14 
DOCKED: REMARK       I    between atoms: CG_14  and  ND2_15 
DOCKED: REMARK    7  A    between atoms: N_19  and  CA_21 
DOCKED: REMARK    8  A    between atoms: CA_21  and  CB_24 
DOCKED: REMARK    9  A    between atoms: CA_21  and  C_22 
DOCKED: REMARK       I    between atoms: C_22  and  N_31 
DOCKED: REMARK   10  A    between atoms: CB_24  and  CG_25 
DOCKED: REMARK   11  A    between atoms: N_31  and  CA_33 
DOCKED: REMARK   12  A    between atoms: CA_33  and  CB_36 
DOCKED: REMARK   13  A    between atoms: CA_33  and  C_34 
DOCKED: REMARK       I    between atoms: C_34  and  N_40 
DOCKED: REMARK   14  A    between atoms: CB_36  and  CG_37 
DOCKED: REMARK   15  A    between atoms: N_40  and  CA_42 
DOCKED: REMARK   16  A    between atoms: CA_42  and  CB_45 
DOCKED: REMARK   17  A    between atoms: CA_42  and  C_43 
DOCKED: REMARK       I    between atoms: C_43  and  N_52 
DOCKED: REMARK   18  A    between atoms: CB_45  and  CG_46 
DOCKED: REMARK   19  A    between atoms: CG_46  and  CD_47 
DOCKED: REMARK       I    between atoms: CD_47  and  NE2_48 
DOCKED: REMARK   20  A    between atoms: N_52  and  CA_54 
DOCKED: REMARK   21  A    between atoms: CA_54  and  C_55 
DOCKED: REMARK   22  A    between atoms: CA_54  and  CB_57 
DOCKED: REMARK       I    between atoms: C_55  and  N_60 
DOCKED: REMARK   23  A    between atoms: CB_57  and  OG_58 
DOCKED: REMARK   24  A    between atoms: N_60  and  CA_62 
DOCKED: REMARK   25  A    between atoms: CA_62  and  C_63 
DOCKED: REMARK       I    between atoms: C_63  and  N_66 
DOCKED: REMARK   26  A    between atoms: CA_67  and  C_68 
DOCKED: USER                              x       y       z     vdW  Elec       q    Type
DOCKED: USER                           _______ _______ _______ _____ _____    ______ ____
DOCKED: ROOT
DOCKED: ATOM      1  CA  LEU P   6      13.132 -13.122   2.688 -0.20 -0.02    +0.177 C 
DOCKED: ENDROOT
DOCKED: BRANCH   1   2
DOCKED: ATOM      2  N   LEU P   6      13.592 -12.239   3.741 -0.05 +0.03    -0.346 N 
DOCKED: ATOM      3  C   PHE P   5      14.641 -11.450   3.553 -0.18 +0.04    +0.241 C 
DOCKED: ATOM      4  O   PHE P   5      15.460 -11.634   2.649 -0.22 -0.10    -0.271 OA
DOCKED: ATOM      5  HN  LEU P   6      13.103 -12.224   4.637 +0.08 -0.04    +0.163 HD
DOCKED: BRANCH   3   6
DOCKED: ATOM      6  CA  PHE P   5      14.784 -10.272   4.515 -0.14 +0.02    +0.180 C 
DOCKED: BRANCH   6   7
DOCKED: ATOM      7  N   PHE P   5      14.645  -8.954   3.898 -0.07 -0.02    -0.346 N 
DOCKED: ATOM      8  C   ASN P   4      13.578  -8.198   4.140 -0.15 -0.00    +0.241 C 
DOCKED: ATOM      9  O   ASN P   4      12.732  -8.505   4.979 -0.17 +0.02    -0.271 OA
DOCKED: ATOM     10  HN  PHE P   5      15.376  -8.609   3.274 +0.05 +0.02    +0.163 HD
DOCKED: BRANCH   8  11
DOCKED: ATOM     11  CA  ASN P   4      13.439  -6.921   3.310 -0.07 +0.00    +0.185 C 
DOCKED: BRANCH  11  12
DOCKED: ATOM     12  N   ASN P   4      12.122  -6.849   2.679 -0.05 +0.01    -0.346 N 
DOCKED: ATOM     13  C   GLY P   3      11.000  -6.911   3.390 -0.24 -0.02    +0.243 C 
DOCKED: ATOM     14  O   GLY P   3      10.992  -7.105   4.606 +0.19 +0.01    -0.272 OA
DOCKED: ATOM     15  HN  ASN P   4      12.063  -6.747   1.666 +0.21 +0.00    +0.163 HD
DOCKED: BRANCH  13  16
DOCKED: ATOM     16  CA  GLY P   3       9.701  -6.739   2.628 +0.03 -0.05    +0.332 C 
DOCKED: BRANCH  16  17
DOCKED: ATOM     17  N   GLY P   3       9.952  -5.999   1.363 -0.44 +0.01    -0.071 N 
DOCKED: ATOM     18  HN3 GLY P   3      10.171  -6.627   0.589 -0.09 -0.07    +0.274 HD
DOCKED: ATOM     19  HN2 GLY P   3       9.098  -5.589   0.984 +0.15 -0.01    +0.274 HD
DOCKED: ATOM     20  HN1 GLY P   3      10.682  -5.301   1.508 +0.14 -0.02    +0.274 HD
DOCKED: ENDBRANCH  16  17
DOCKED: ENDBRANCH  13  16
DOCKED: ENDBRANCH  11  12
DOCKED: BRANCH  11  21
DOCKED: ATOM     21  CB  ASN P   4      13.696  -5.675   4.169 -0.15 -0.00    +0.137 C 
DOCKED: BRANCH  21  22
DOCKED: ATOM     22  CG  ASN P   4      14.132  -6.021   5.590 -0.09 -0.01    +0.217 C 
DOCKED: ATOM     23  OD1 ASN P   4      13.314  -6.062   6.512 -0.08 +0.01    -0.274 OA
DOCKED: ATOM     24  ND2 ASN P   4      15.428  -6.272   5.771 -0.00 +0.01    -0.370 N 
DOCKED: ATOM     25 2HD2 ASN P   4      16.105  -6.239   5.008 +0.03 -0.00    +0.159 HD
DOCKED: ATOM     26 1HD2 ASN P   4      15.720  -6.503   6.720 +0.02 -0.00    +0.159 HD
DOCKED: ENDBRANCH  21  22
DOCKED: ENDBRANCH  11  21
DOCKED: ENDBRANCH   8  11
DOCKED: ENDBRANCH   6   7
DOCKED: BRANCH   6  27
DOCKED: ATOM     27  CB  PHE P   5      13.850 -10.422   5.724 -0.13 -0.01    +0.073 C 
DOCKED: BRANCH  27  28
DOCKED: ATOM     28  CG  PHE P   5      14.571 -10.444   7.041 -0.07 +0.01    -0.056 A 
DOCKED: ATOM     29  CD1 PHE P   5      15.336 -11.545   7.410 -0.11 -0.00    +0.007 A 
DOCKED: ATOM     30  CE1 PHE P   5      16.020 -11.566   8.623 -0.08 -0.00    +0.001 A 
DOCKED: ATOM     31  CZ  PHE P   5      15.945 -10.476   9.485 -0.02 -0.00    +0.000 A 
DOCKED: ATOM     32  CE2 PHE P   5      15.177  -9.366   9.128 -0.02 -0.00    +0.001 A 
DOCKED: ATOM     33  CD2 PHE P   5      14.496  -9.356   7.907 -0.04 -0.00    +0.007 A 
DOCKED: ENDBRANCH  27  28
DOCKED: ENDBRANCH   6  27
DOCKED: ENDBRANCH   3   6
DOCKED: ENDBRANCH   1   2
DOCKED: BRANCH   1  34
DOCKED: ATOM     34  CB  LEU P   6      14.247 -13.364   1.667 -0.23 +0.00    +0.038 C 
DOCKED: BRANCH  34  35
DOCKED: ATOM     35  CG  LEU P   6      13.845 -13.330   0.187 -0.18 -0.00    -0.020 C 
DOCKED: ATOM     36  CD2 LEU P   6      13.383 -11.953  -0.273 -0.60 +0.00    +0.009 C 
DOCKED: ATOM     37  CD1 LEU P   6      12.799 -14.375  -0.092 -0.36 -0.00    +0.009 C 
DOCKED: ENDBRANCH  34  35
DOCKED: ENDBRANCH   1  34
DOCKED: BRANCH   1  38
DOCKED: ATOM     38  C   LEU P   6      12.735 -14.451   3.320 -0.15 -0.07    +0.241 C 
DOCKED: ATOM     39  O   LEU P   6      13.582 -15.281   3.625 -0.11 +0.12    -0.271 OA
DOCKED: ATOM     40  N   GLN P   7      11.441 -14.653   3.507 -0.11 +0.10    -0.346 N 
DOCKED: ATOM     41  HN  GLN P   7      10.789 -13.895   3.313 +0.06 -0.04    +0.163 HD
DOCKED: BRANCH  40  42
DOCKED: ATOM     42  CA  GLN P   7      10.925 -15.919   3.978 -0.05 -0.05    +0.177 C 
DOCKED: BRANCH  42  43
DOCKED: ATOM     43  CB  GLN P   7      10.845 -15.916   5.503 -0.27 -0.01    +0.044 C 
DOCKED: BRANCH  43  44
DOCKED: ATOM     44  CG  GLN P   7      10.350 -14.629   6.116 -0.41 -0.04    +0.105 C 
DOCKED: BRANCH  44  45
DOCKED: ATOM     45  CD  GLN P   7       9.687 -14.839   7.440 -0.43 -0.14    +0.215 C 
DOCKED: ATOM     46  OE1 GLN P   7       8.969 -15.813   7.640 -0.48 +0.15    -0.274 OA
DOCKED: ATOM     47  NE2 GLN P   7       9.921 -13.926   8.359 -0.11 +0.40    -0.370 N 
DOCKED: ATOM     48 2HE2 GLN P   7       9.468 -14.070   9.261 -0.48 -0.28    +0.159 HD
DOCKED: ATOM     49 1HE2 GLN P   7      10.517 -13.116   8.193 +0.06 -0.13    +0.159 HD
DOCKED: ENDBRANCH  44  45
DOCKED: ENDBRANCH  43  44
DOCKED: ENDBRANCH  42  43
DOCKED: BRANCH  42  50
DOCKED: ATOM     50  C   GLN P   7       9.562 -16.199   3.342 -0.28 -0.03    +0.241 C 
DOCKED: ATOM     51  O   GLN P   7       8.535 -16.198   4.004 -0.20 +0.03    -0.271 OA
DOCKED: ATOM     52  N   SER P   8       9.556 -16.400   2.035 -0.18 +0.04    -0.344 N 
DOCKED: ATOM     53  HN  SER P   8      10.408 -16.237   1.497 +0.06 -0.03    +0.163 HD
DOCKED: BRANCH  52  54
DOCKED: ATOM     54  CA  SER P   8       8.364 -16.844   1.357 -0.30 +0.01    +0.200 C 
DOCKED: BRANCH  54  55
DOCKED: ATOM     55  C   SER P   8       8.525 -16.314  -0.057 -0.22 +0.01    +0.243 C 
DOCKED: ATOM     56  O   SER P   8       9.608 -15.889  -0.457 -0.22 -0.01    -0.271 OA
DOCKED: ATOM     57  N   ARG P   9       7.460 -16.356  -0.835 -0.10 -0.01    -0.346 N 
DOCKED: ATOM     58  HN  ARG P   9       6.642 -16.894  -0.547 +0.11 +0.01    +0.163 HD
DOCKED: BRANCH  57  59
DOCKED: ATOM     59  CA  ARG P   9       7.448 -15.645  -2.087 -0.28 +0.00    +0.172 C 
DOCKED: ATOM     60  CB  ARG P   9       7.722 -14.177  -1.862 -0.26 +0.01    +0.042 C 
DOCKED: BRANCH  59  61
DOCKED: ATOM     61  C   ARG P   9       8.537 -16.277  -2.937 -0.25 -0.03    +0.243 C 
DOCKED: ATOM     62  N   PRO P  10       8.406 -16.168  -4.259 -0.15 +0.05    -0.336 N 
DOCKED: ATOM     63  CD  PRO P  10       7.138 -16.251  -4.992 -0.23 -0.04    +0.127 C 
DOCKED: ATOM     64  CA  PRO P  10       9.515 -16.246  -5.191 -0.27 -0.02    +0.188 C 
DOCKED: ATOM     65  CG  PRO P  10       7.514 -17.239  -6.062 -0.43 -0.01    +0.022 C 
DOCKED: ATOM     66  CB  PRO P  10       8.965 -17.262  -6.207 -0.05 -0.00    +0.038 C 
DOCKED: ATOM     67  O   ARG P   9       9.426 -16.954  -2.417 -0.29 +0.03    -0.271 OA
DOCKED: BRANCH  64  68
DOCKED: ATOM     68  C   PRO P  10       9.754 -14.888  -5.863 -0.14 -0.02    +0.196 C 
DOCKED: ATOM     69  O   PRO P  10      10.868 -14.569  -6.312 +0.41 +0.06    -0.646 OA
DOCKED: ATOM     70  OXT PRO P  10       8.835 -14.069  -5.983 +0.06 +0.10    -0.646 OA
DOCKED: ENDBRANCH  64  68
DOCKED: ENDBRANCH  59  61
DOCKED: ENDBRANCH  57  59
DOCKED: ENDBRANCH  54  55
DOCKED: BRANCH  54  71
DOCKED: ATOM     71  CB  SER P   8       7.121 -16.249   2.019 -0.01 +0.01    +0.199 C 
DOCKED: BRANCH  71  72
DOCKED: ATOM     72  OG  SER P   8       5.941 -16.552   1.296 -0.18 -0.02    -0.398 OA
DOCKED: ATOM     73  HG  SER P   8       5.765 -15.911   0.618 +0.13 +0.04    +0.209 HD
DOCKED: ENDBRANCH  71  72
DOCKED: ENDBRANCH  54  71
DOCKED: ENDBRANCH  52  54
DOCKED: ENDBRANCH  42  50
DOCKED: ENDBRANCH  40  42
DOCKED: ENDBRANCH   1  38
DOCKED: TORSDOF 26
DOCKED: TER
DOCKED: ENDMDL
________________________________________________________________________________


	BEGINNING GENETIC ALGORITHM DOCKING 10 of 10
Run: 10 Seed: 10996915 1692694121 [ Run 10 of 10 GA/GALS ]
Beginning LAMARCKIAN GENETIC ALGORITHM (LGA), with a maximum of 2500000 energy evaluations.

Final-Value: 28.480


	FINAL GENETIC ALGORITHM DOCKED STATE
	_______________________________________________


Detailed state:  trans 14.277 -13.809 4.660 quatxyzw 0.603766 -0.013199 0.467365 0.645648 center 9.642 -14.316 1.762 ntor 26 -151.4958 110.6873 -61.8225 149.9139 -1.1001 -68.5584 -140.3648 -12.3967 -180.0000 -169.2633 99.8516 -86.8887 -130.7206 95.2226 -179.9762 -36.1660 -167.6457 -71.4419 -72.0331 -37.5240 139.0513 -104.6006 -163.1077 54.6542 109.5345 177.3151
State:	 14.277 -13.809   4.660   0.791 -0.017  0.612 99.571   -151.50  110.69  -61.82  149.91   -1.10  -68.56 -140.36  -12.40 -180.00 -169.26   99.85  -86.89 -130.72   95.22 -179.98  -36.17 -167.65  -71.44  -72.03  -37.52  139.05 -104.60 -163.11   54.65  109.53  177.32

DOCKED: MODEL       10
DOCKED: USER    Run = 10
DOCKED: USER    DPF = dock.dpf
DOCKED: USER  
DOCKED: USER    Estimated Free Energy of Binding    =  +16.37 kcal/mol  [=(1)+(2)+(3)-(4)]
DOCKED: USER    
DOCKED: USER    (1) Final Intermolecular Energy     =   +8.61 kcal/mol
DOCKED: USER        vdW + Hbond + desolv Energy     =   +8.80 kcal/mol
DOCKED: USER        Electrostatic Energy            =   -0.18 kcal/mol
DOCKED: USER    (2) Final Total Internal Energy     =  +19.87 kcal/mol
DOCKED: USER    (3) Torsional Free Energy           =   +7.76 kcal/mol
DOCKED: USER    (4) Unbound System's Energy  [=(2)] =  +19.87 kcal/mol
DOCKED: USER    
DOCKED: USER    
DOCKED: USER    NEWDPF move lig3d3t.pdbqt
DOCKED: USER    NEWDPF about 9.642000 -14.316000 1.762000
DOCKED: USER    NEWDPF tran0 14.276511 -13.809215 4.659818
DOCKED: USER    NEWDPF quaternion0 0.603766 -0.013199 0.467365 0.645648
DOCKED: USER    NEWDPF axisangle0 0.790648 -0.017285 0.612027 99.571402
DOCKED: USER    NEWDPF quat0 0.790648 -0.017285 0.612027 99.571402
DOCKED: USER    NEWDPF dihe0 -151.50 110.69 -61.82 149.91 -1.10 -68.56 -140.36 -12.40 -180.00 -169.26 99.85 -86.89 -130.72 95.22 -179.98 -36.17 -167.65 -71.44 -72.03 -37.52 139.05 -104.60 -163.11 54.65 109.53 177.32 
DOCKED: USER  keepresnum = 1 
DOCKED: USER  
DOCKED: REMARK  26 active torsions:
DOCKED: REMARK  status: ('A' for Active; 'I' for Inactive)
DOCKED: REMARK    1  A    between atoms: N_1  and  CA_5 
DOCKED: REMARK    2  A    between atoms: CA_5  and  C_6 
DOCKED: REMARK       I    between atoms: C_6  and  N_8 
DOCKED: REMARK    3  A    between atoms: N_8  and  CA_10 
DOCKED: REMARK    4  A    between atoms: CA_10  and  CB_13 
DOCKED: REMARK    5  A    between atoms: CA_10  and  C_11 
DOCKED: REMARK       I    between atoms: C_11  and  N_19 
DOCKED: REMARK    6  A    between atoms: CB_13  and  CG_14 
DOCKED: REMARK       I    between atoms: CG_14  and  ND2_15 
DOCKED: REMARK    7  A    between atoms: N_19  and  CA_21 
DOCKED: REMARK    8  A    between atoms: CA_21  and  CB_24 
DOCKED: REMARK    9  A    between atoms: CA_21  and  C_22 
DOCKED: REMARK       I    between atoms: C_22  and  N_31 
DOCKED: REMARK   10  A    between atoms: CB_24  and  CG_25 
DOCKED: REMARK   11  A    between atoms: N_31  and  CA_33 
DOCKED: REMARK   12  A    between atoms: CA_33  and  CB_36 
DOCKED: REMARK   13  A    between atoms: CA_33  and  C_34 
DOCKED: REMARK       I    between atoms: C_34  and  N_40 
DOCKED: REMARK   14  A    between atoms: CB_36  and  CG_37 
DOCKED: REMARK   15  A    between atoms: N_40  and  CA_42 
DOCKED: REMARK   16  A    between atoms: CA_42  and  CB_45 
DOCKED: REMARK   17  A    between atoms: CA_42  and  C_43 
DOCKED: REMARK       I    between atoms: C_43  and  N_52 
DOCKED: REMARK   18  A    between atoms: CB_45  and  CG_46 
DOCKED: REMARK   19  A    between atoms: CG_46  and  CD_47 
DOCKED: REMARK       I    between atoms: CD_47  and  NE2_48 
DOCKED: REMARK   20  A    between atoms: N_52  and  CA_54 
DOCKED: REMARK   21  A    between atoms: CA_54  and  C_55 
DOCKED: REMARK   22  A    between atoms: CA_54  and  CB_57 
DOCKED: REMARK       I    between atoms: C_55  and  N_60 
DOCKED: REMARK   23  A    between atoms: CB_57  and  OG_58 
DOCKED: REMARK   24  A    between atoms: N_60  and  CA_62 
DOCKED: REMARK   25  A    between atoms: CA_62  and  C_63 
DOCKED: REMARK       I    between atoms: C_63  and  N_66 
DOCKED: REMARK   26  A    between atoms: CA_67  and  C_68 
DOCKED: USER                              x       y       z     vdW  Elec       q    Type
DOCKED: USER                           _______ _______ _______ _____ _____    ______ ____
DOCKED: ROOT
DOCKED: ATOM      1  CA  LEU P   6      13.547 -15.396   5.812 +1.61 -0.15    +0.177 C 
DOCKED: ENDROOT
DOCKED: BRANCH   1   2
DOCKED: ATOM      2  N   LEU P   6      12.181 -15.371   5.326 -0.15 +0.11    -0.346 N 
DOCKED: ATOM      3  C   PHE P   5      11.685 -14.278   4.762 -0.22 -0.09    +0.241 C 
DOCKED: ATOM      4  O   PHE P   5      12.198 -13.165   4.897 -0.14 +0.11    -0.271 OA
DOCKED: ATOM      5  HN  LEU P   6      11.597 -16.201   5.420 +0.08 -0.01    +0.163 HD
DOCKED: BRANCH   3   6
DOCKED: ATOM      6  CA  PHE P   5      10.434 -14.468   3.906 -0.28 -0.05    +0.180 C 
DOCKED: BRANCH   6   7
DOCKED: ATOM      7  N   PHE P   5      10.681 -14.569   2.468 -0.11 +0.05    -0.346 N 
DOCKED: ATOM      8  C   ASN P   4       9.948 -13.876   1.602 -0.13 +0.02    +0.241 C 
DOCKED: ATOM      9  O   ASN P   4       9.128 -13.031   1.962 +5.61 -0.09    -0.271 OA
DOCKED: ATOM     10  HN  PHE P   5      11.424 -15.178   2.126 -0.08 -0.05    +0.163 HD
DOCKED: BRANCH   8  11
DOCKED: ATOM     11  CA  ASN P   4      10.163 -14.186   0.120 -0.31 +0.02    +0.185 C 
DOCKED: BRANCH  11  12
DOCKED: ATOM     12  N   ASN P   4      10.778 -15.501  -0.055 -0.14 -0.01    -0.346 N 
DOCKED: ATOM     13  C   GLY P   3      10.224 -16.605   0.438 -0.31 -0.02    +0.243 C 
DOCKED: ATOM     14  O   GLY P   3       9.206 -16.586   1.130 -0.29 +0.01    -0.272 OA
DOCKED: ATOM     15  HN  ASN P   4      11.655 -15.573  -0.569 +0.10 +0.02    +0.163 HD
DOCKED: BRANCH  13  16
DOCKED: ATOM     16  CA  GLY P   3      10.914 -17.915   0.115 +0.43 -0.07    +0.332 C 
DOCKED: BRANCH  16  17
DOCKED: ATOM     17  N   GLY P   3      10.314 -18.516  -1.105 -0.01 +0.02    -0.071 N 
DOCKED: ATOM     18  HN3 GLY P   3       9.306 -18.643  -1.014 -0.03 -0.08    +0.274 HD
DOCKED: ATOM     19  HN2 GLY P   3      10.311 -17.865  -1.890 +0.15 -0.04    +0.274 HD
DOCKED: ATOM     20  HN1 GLY P   3      10.791 -19.389  -1.332 -0.11 -0.12    +0.274 HD
DOCKED: ENDBRANCH  16  17
DOCKED: ENDBRANCH  13  16
DOCKED: ENDBRANCH  11  12
DOCKED: BRANCH  11  21
DOCKED: ATOM     21  CB  ASN P   4       8.843 -14.099  -0.658 -0.34 +0.04    +0.137 C 
DOCKED: BRANCH  21  22
DOCKED: ATOM     22  CG  ASN P   4       7.692 -13.571   0.195 +0.53 +0.13    +0.217 C 
DOCKED: ATOM     23  OD1 ASN P   4       7.310 -14.184   1.194 -0.44 -0.11    -0.274 OA
DOCKED: ATOM     24  ND2 ASN P   4       7.136 -12.427  -0.200 +1.08 -0.24    -0.370 N 
DOCKED: ATOM     25 2HD2 ASN P   4       7.452 -11.919  -1.027 +0.14 +0.10    +0.159 HD
DOCKED: ATOM     26 1HD2 ASN P   4       6.366 -12.074   0.370 +0.23 +0.04    +0.159 HD
DOCKED: ENDBRANCH  21  22
DOCKED: ENDBRANCH  11  21
DOCKED: ENDBRANCH   8  11
DOCKED: ENDBRANCH   6   7
DOCKED: BRANCH   6  27
DOCKED: ATOM     27  CB  PHE P   5       9.586 -15.644   4.409 -0.41 -0.01    +0.073 C 
DOCKED: BRANCH  27  28
DOCKED: ATOM     28  CG  PHE P   5       9.340 -15.617   5.890 -0.45 +0.02    -0.056 A 
DOCKED: ATOM     29  CD1 PHE P   5       9.551 -14.452   6.621 -0.48 -0.00    +0.007 A 
DOCKED: ATOM     30  CE1 PHE P   5       9.310 -14.416   7.992 -0.36 -0.00    +0.001 A 
DOCKED: ATOM     31  CZ  PHE P   5       8.853 -15.552   8.651 +0.19 -0.00    +0.000 A 
DOCKED: ATOM     32  CE2 PHE P   5       8.641 -16.729   7.929 -0.35 -0.00    +0.001 A 
DOCKED: ATOM     33  CD2 PHE P   5       8.885 -16.754   6.553 -0.54 -0.00    +0.007 A 
DOCKED: ENDBRANCH  27  28
DOCKED: ENDBRANCH   6  27
DOCKED: ENDBRANCH   3   6
DOCKED: ENDBRANCH   1   2
DOCKED: BRANCH   1  34
DOCKED: ATOM     34  CB  LEU P   6      14.331 -16.530   5.148 +1.81 -0.04    +0.038 C 
DOCKED: BRANCH  34  35
DOCKED: ATOM     35  CG  LEU P   6      15.174 -16.159   3.921 -0.46 +0.01    -0.020 C 
DOCKED: ATOM     36  CD2 LEU P   6      14.362 -15.478   2.826 +1.05 -0.00    +0.009 C 
DOCKED: ATOM     37  CD1 LEU P   6      15.885 -17.375   3.391 +0.75 +0.00    +0.009 C 
DOCKED: ENDBRANCH  34  35
DOCKED: ENDBRANCH   1  34
DOCKED: BRANCH   1  38
DOCKED: ATOM     38  C   LEU P   6      14.201 -14.063   5.462 -0.11 -0.18    +0.241 C 
DOCKED: ATOM     39  O   LEU P   6      15.001 -13.536   6.224 +0.32 +0.32    -0.271 OA
DOCKED: ATOM     40  N   GLN P   7      13.848 -13.517   4.311 -0.07 +0.08    -0.346 N 
DOCKED: ATOM     41  HN  GLN P   7      13.242 -14.041   3.680 +0.09 -0.04    +0.163 HD
DOCKED: BRANCH  40  42
DOCKED: ATOM     42  CA  GLN P   7      14.295 -12.199   3.921 -0.18 +0.00    +0.177 C 
DOCKED: BRANCH  42  43
DOCKED: ATOM     43  CB  GLN P   7      13.495 -11.711   2.715 -0.32 +0.00    +0.044 C 
DOCKED: BRANCH  43  44
DOCKED: ATOM     44  CG  GLN P   7      13.915 -12.296   1.389 -0.14 +0.01    +0.105 C 
DOCKED: BRANCH  44  45
DOCKED: ATOM     45  CD  GLN P   7      13.197 -11.676   0.232 -0.45 +0.02    +0.215 C 
DOCKED: ATOM     46  OE1 GLN P   7      13.705 -11.639  -0.883 -0.83 -0.02    -0.274 OA
DOCKED: ATOM     47  NE2 GLN P   7      12.004 -11.181   0.487 -0.20 -0.04    -0.370 N 
DOCKED: ATOM     48 2HE2 GLN P   7      11.514 -10.758  -0.301 +0.08 +0.02    +0.159 HD
DOCKED: ATOM     49 1HE2 GLN P   7      11.580 -11.212   1.414 +0.08 +0.02    +0.159 HD
DOCKED: ENDBRANCH  44  45
DOCKED: ENDBRANCH  43  44
DOCKED: ENDBRANCH  42  43
DOCKED: BRANCH  42  50
DOCKED: ATOM     50  C   GLN P   7      14.179 -11.234   5.102 -0.10 -0.02    +0.241 C 
DOCKED: ATOM     51  O   GLN P   7      14.281 -10.026   4.953 -0.07 -0.00    -0.271 OA
DOCKED: ATOM     52  N   SER P   8      13.920 -11.778   6.280 -0.04 +0.13    -0.344 N 
DOCKED: ATOM     53  HN  SER P   8      13.687 -12.770   6.334 +0.05 -0.11    +0.163 HD
DOCKED: BRANCH  52  54
DOCKED: ATOM     54  CA  SER P   8      13.963 -10.992   7.487 -0.06 -0.08    +0.200 C 
DOCKED: BRANCH  54  55
DOCKED: ATOM     55  C   SER P   8      13.934  -9.557   6.994 -0.04 -0.03    +0.243 C 
DOCKED: ATOM     56  O   SER P   8      14.959  -8.996   6.609 -0.02 +0.01    -0.271 OA
DOCKED: ATOM     57  N   ARG P   9      12.759  -8.956   6.977 -0.09 +0.04    -0.346 N 
DOCKED: ATOM     58  HN  ARG P   9      11.907  -9.502   7.107 +0.05 -0.02    +0.163 HD
DOCKED: BRANCH  57  59
DOCKED: ATOM     59  CA  ARG P   9      12.676  -7.532   6.777 -0.11 -0.01    +0.172 C 
DOCKED: ATOM     60  CB  ARG P   9      13.707  -6.820   7.620 -0.12 -0.00    +0.042 C 
DOCKED: BRANCH  59  61
DOCKED: ATOM     61  C   ARG P   9      12.931  -7.302   5.297 -0.15 -0.01    +0.243 C 
DOCKED: ATOM     62  N   PRO P  10      12.010  -7.762   4.451 -0.20 +0.02    -0.336 N 
DOCKED: ATOM     63  CD  PRO P  10      11.275  -9.023   4.604 +0.90 -0.01    +0.127 C 
DOCKED: ATOM     64  CA  PRO P  10      11.808  -7.239   3.112 -0.30 -0.01    +0.188 C 
DOCKED: ATOM     65  CG  PRO P  10      11.464  -9.610   3.232 +0.33 -0.00    +0.022 C 
DOCKED: ATOM     66  CB  PRO P  10      11.794  -8.543   2.294 +3.17 -0.00    +0.038 C 
DOCKED: ATOM     67  O   ARG P   9      13.996  -6.818   4.911 -0.09 +0.01    -0.271 OA
DOCKED: BRANCH  64  68
DOCKED: ATOM     68  C   PRO P  10      10.454  -6.524   3.009 -0.16 -0.02    +0.196 C 
DOCKED: ATOM     69  O   PRO P  10       9.385  -7.118   3.225 -0.02 +0.10    -0.646 OA
DOCKED: ATOM     70  OXT PRO P  10      10.391  -5.326   2.710 +0.10 +0.03    -0.646 OA
DOCKED: ENDBRANCH  64  68
DOCKED: ENDBRANCH  59  61
DOCKED: ENDBRANCH  57  59
DOCKED: ENDBRANCH  54  55
DOCKED: BRANCH  54  71
DOCKED: ATOM     71  CB  SER P   8      15.253 -11.272   8.260 -0.06 -0.09    +0.199 C 
DOCKED: BRANCH  71  72
DOCKED: ATOM     72  OG  SER P   8      16.094 -12.181   7.572 -0.08 +0.21    -0.398 OA
DOCKED: ATOM     73  HG  SER P   8      15.973 -12.134   6.631 +0.00 -0.02    +0.209 HD
DOCKED: ENDBRANCH  71  72
DOCKED: ENDBRANCH  54  71
DOCKED: ENDBRANCH  52  54
DOCKED: ENDBRANCH  42  50
DOCKED: ENDBRANCH  40  42
DOCKED: ENDBRANCH   1  38
DOCKED: TORSDOF 26
DOCKED: TER
DOCKED: ENDMDL
________________________________________________________________________________

DPF> analysis                             # perform a ranked cluster analysis


		CLUSTER ANALYSIS OF CONFORMATIONS
		_________________________________

Number of conformations = 10

RMSD cluster analysis will be performed using the ligand atoms only (73 / 73 total atoms).

Outputting structurally similar clusters, ranked in order of increasing energy.


________________________________________________________________________________

Number of distinct conformational clusters found = 10,  out of 10 runs,
Using an rmsd-tolerance of 2.0 A


	CLUSTERING HISTOGRAM
	____________________

________________________________________________________________________________
     |           |     |           |     |                                    
Clus | Lowest    | Run | Mean      | Num | Histogram                          
-ter | Binding   |     | Binding   | in  |                                    
Rank | Energy    |     | Energy    | Clus|    5    10   15   20   25   30   35
_____|___________|_____|___________|_____|____:____|____:____|____:____|____:___
   1 |     -6.48 |   1 |     -6.48 |   1 |#
   2 |     -4.68 |   3 |     -4.68 |   1 |#
   3 |     -3.72 |   2 |     -3.72 |   1 |#
   4 |     -1.36 |   9 |     -1.36 |   1 |#
   5 |     -0.70 |   6 |     -0.70 |   1 |#
   6 |     -0.10 |   7 |     -0.10 |   1 |#
   7 |     +2.81 |   8 |     +2.81 |   1 |#
   8 |     +3.91 |   5 |     +3.91 |   1 |#
   9 |    +16.37 |  10 |    +16.37 |   1 |#
  10 |    +26.07 |   4 |    +26.07 |   1 |#
_____|___________|_____|___________|_____|______________________________________

	RMSD TABLE
	__________

_____________________________________________________________________
     |      |      |           |         |                 |
Rank | Sub- | Run  | Binding   | Cluster | Reference       | Grep
     | Rank |      | Energy    | RMSD    | RMSD            | Pattern
_____|______|______|___________|_________|_________________|___________
   1      1      1       -6.48      0.00      3.08           RANKING
   2      1      3       -4.68      0.00      4.80           RANKING
   3      1      2       -3.72      0.00      3.86           RANKING
   4      1      9       -1.36      0.00      5.62           RANKING
   5      1      6       -0.70      0.00      5.16           RANKING
   6      1      7       -0.10      0.00      3.78           RANKING
   7      1      8       +2.81      0.00      2.97           RANKING
   8      1      5       +3.91      0.00      2.62           RANKING
   9      1     10      +16.37      0.00      4.05           RANKING
  10      1      4      +26.07      0.00      4.39           RANKING
_______________________________________________________________________



	INFORMATION ENTROPY ANALYSIS FOR THIS CLUSTERING
	________________________________________________


Information entropy for this clustering = 1.00  (rmstol = 2.00 Angstrom)

_______________________________________________________________________


	STATISTICAL MECHANICAL ANALYSIS
	_______________________________


Partition function, Q =     9.95            at Temperature, T = 298.15 K
Free energy,        A ~ -1361.11 kcal/mol   at Temperature, T = 298.15 K
Internal energy,    U =     3.05 kcal/mol   at Temperature, T = 298.15 K
Entropy,            S =     4.58 kcal/mol/K at Temperature, T = 298.15 K

_______________________________________________________________________


	LOWEST ENERGY DOCKED CONFORMATION from EACH CLUSTER
	___________________________________________________



Keeping original residue number (specified in the input PDBQ file) for outputting.

MODEL        1
USER    Run = 1
USER    Cluster Rank = 1
USER    Number of conformations in this cluster = 1
USER  
USER    RMSD from reference structure       = 3.084 A
USER  
USER    Estimated Free Energy of Binding    =   -6.48 kcal/mol  [=(1)+(2)+(3)-(4)]
USER    Estimated Inhibition Constant, Ki   =   17.80 uM (micromolar)  [Temperature = 298.15 K]
USER    
USER    (1) Final Intermolecular Energy     =  -14.24 kcal/mol
USER        vdW + Hbond + desolv Energy     =  -14.06 kcal/mol
USER        Electrostatic Energy            =   -0.18 kcal/mol
USER    (2) Final Total Internal Energy     =   -3.57 kcal/mol
USER    (3) Torsional Free Energy           =   +7.76 kcal/mol
USER    (4) Unbound System's Energy  [=(2)] =   -3.57 kcal/mol
USER    
USER    
USER  
USER    DPF = dock.dpf
USER    NEWDPF move	lig3d3t.pdbqt
USER    NEWDPF about	9.642000 -14.316000 1.762000
USER    NEWDPF tran0	12.139880 -13.850442 2.671235
USER    NEWDPF axisangle0	-0.463554 -0.344442 -0.816381 -159.511793
USER    NEWDPF quaternion0	-0.456165 -0.338951 -0.803367 -0.177842
USER    NEWDPF dihe0	68.61 67.50 -177.16 -26.07 -48.84 28.11 94.94 -12.38 169.97 -152.25 179.99 -161.68 -33.60 -178.08 103.20 -128.57 -136.76 31.54 104.24 -17.36 -11.54 -89.90 -179.74 -159.21 -165.88 132.11 
USER  
USER                              x       y       z    vdW   Elec        q     RMS 
ATOM      1  CA  LEU P   6      10.058 -14.000   2.815 -0.23 -0.02    +0.177     3.084
ATOM      2  N   LEU P   6       9.798 -14.367   1.437 -0.13 -0.02    -0.346     3.084
ATOM      3  C   PHE P   5       9.117 -15.467   1.147 -0.24 +0.01    +0.241     3.084
ATOM      4  O   PHE P   5       8.951 -16.382   1.957 -0.26 +0.01    -0.271     3.084
ATOM      5  HN  LEU P   6      10.143 -13.773   0.683 +0.09 +0.03    +0.163     3.084
ATOM      6  CA  PHE P   5       8.523 -15.545  -0.259 -0.27 +0.02    +0.180     3.084
ATOM      7  N   PHE P   5       7.062 -15.551  -0.310 -0.15 -0.07    -0.346     3.084
ATOM      8  C   ASN P   4       6.401 -16.626  -0.728 -0.23 +0.01    +0.241     3.084
ATOM      9  O   ASN P   4       6.965 -17.695  -0.965 -0.20 +0.02    -0.271     3.084
ATOM     10  HN  PHE P   5       6.544 -14.722  -0.021 +0.16 +0.12    +0.163     3.084
ATOM     11  CA  ASN P   4       4.891 -16.473  -0.916 -0.22 +0.02    +0.185     3.084
ATOM     12  N   ASN P   4       4.497 -16.818  -2.281 -0.11 -0.01    -0.346     3.084
ATOM     13  C   GLY P   3       5.371 -16.821  -3.284 -0.15 -0.04    +0.243     3.084
ATOM     14  O   GLY P   3       6.541 -16.466  -3.147 -0.19 +0.05    -0.272     3.084
ATOM     15  HN  ASN P   4       3.525 -17.064  -2.469 +0.08 +0.01    +0.163     3.084
ATOM     16  CA  GLY P   3       4.856 -17.279  -4.634 -0.09 -0.09    +0.332     3.084
ATOM     17  N   GLY P   3       5.466 -16.458  -5.713 -0.14 +0.03    -0.071     3.084
ATOM     18  HN3 GLY P   3       4.816 -15.763  -6.081 -0.25 -0.12    +0.274     3.084
ATOM     19  HN2 GLY P   3       6.176 -15.820  -5.353 -0.36 -0.16    +0.274     3.084
ATOM     20  HN1 GLY P   3       5.833 -17.066  -6.446 +0.14 -0.14    +0.274     3.084
ATOM     21  CB  ASN P   4       4.119 -17.325   0.101 -0.52 +0.00    +0.137     3.084
ATOM     22  CG  ASN P   4       4.938 -17.630   1.353 -0.41 -0.01    +0.217     3.084
ATOM     23  OD1 ASN P   4       5.985 -18.277   1.283 -0.18 -0.01    -0.274     3.084
ATOM     24  ND2 ASN P   4       4.459 -17.162   2.505 -0.08 +0.06    -0.370     3.084
ATOM     25 2HD2 ASN P   4       3.593 -16.627   2.562 -0.35 -0.07    +0.159     3.084
ATOM     26 1HD2 ASN P   4       5.006 -17.366   3.342 +0.07 -0.01    +0.159     3.084
ATOM     27  CB  PHE P   5       9.108 -14.459  -1.173 -0.40 +0.01    +0.073     3.084
ATOM     28  CG  PHE P   5       9.263 -14.895  -2.601 -0.32 -0.00    -0.056     3.084
ATOM     29  CD1 PHE P   5       8.289 -14.585  -3.544 -0.29 -0.00    +0.007     3.084
ATOM     30  CE1 PHE P   5       8.434 -14.973  -4.874 -0.37 -0.00    +0.001     3.084
ATOM     31  CZ  PHE P   5       9.562 -15.680  -5.276 -0.43 -0.00    +0.000     3.084
ATOM     32  CE2 PHE P   5      10.545 -16.001  -4.337 -0.33 -0.00    +0.001     3.084
ATOM     33  CD2 PHE P   5      10.390 -15.606  -3.006 -0.39 +0.00    +0.007     3.084
ATOM     34  CB  LEU P   6       9.987 -15.232   3.720 -0.41 -0.01    +0.038     3.084
ATOM     35  CG  LEU P   6       9.939 -14.976   5.231 -0.45 +0.01    -0.020     3.084
ATOM     36  CD2 LEU P   6      11.299 -15.124   5.903 -0.44 -0.00    +0.009     3.084
ATOM     37  CD1 LEU P   6       8.915 -15.870   5.878 -0.55 -0.00    +0.009     3.084
ATOM     38  C   LEU P   6      11.458 -13.402   2.892 -0.19 -0.04    +0.241     3.084
ATOM     39  O   LEU P   6      11.625 -12.189   2.899 -0.20 +0.04    -0.271     3.084
ATOM     40  N   GLN P   7      12.465 -14.259   2.940 -0.07 +0.09    -0.346     3.084
ATOM     41  HN  GLN P   7      12.263 -15.255   3.017 -0.44 -0.08    +0.163     3.084
ATOM     42  CA  GLN P   7      13.843 -13.825   2.887 -0.22 -0.02    +0.177     3.084
ATOM     43  CB  GLN P   7      14.265 -13.604   1.437 -0.21 +0.00    +0.044     3.084
ATOM     44  CG  GLN P   7      13.148 -13.676   0.425 -0.38 -0.00    +0.105     3.084
ATOM     45  CD  GLN P   7      12.846 -12.349  -0.195 -0.46 +0.01    +0.215     3.084
ATOM     46  OE1 GLN P   7      12.537 -12.259  -1.378 -0.42 -0.01    -0.274     3.084
ATOM     47  NE2 GLN P   7      12.932 -11.303   0.600 -0.27 -0.04    -0.370     3.084
ATOM     48 2HE2 GLN P   7      12.726 -10.398   0.176 +0.10 +0.03    +0.159     3.084
ATOM     49 1HE2 GLN P   7      13.189 -11.377   1.584 +0.09 +0.01    +0.159     3.084
ATOM     50  C   GLN P   7      14.027 -12.561   3.728 -0.15 -0.01    +0.241     3.084
ATOM     51  O   GLN P   7      14.903 -11.747   3.475 -0.18 -0.06    -0.271     3.084
ATOM     52  N   SER P   8      13.163 -12.380   4.712 -0.05 +0.09    -0.344     3.084
ATOM     53  HN  SER P   8      12.355 -12.999   4.791 +0.06 -0.06    +0.163     3.084
ATOM     54  CA  SER P   8      13.343 -11.323   5.676 -0.12 -0.05    +0.200     3.084
ATOM     55  C   SER P   8      13.074 -11.992   7.012 -0.12 -0.14    +0.243     3.084
ATOM     56  O   SER P   8      13.993 -12.453   7.688 -0.02 +0.29    -0.271     3.084
ATOM     57  N   ARG P   9      11.819 -12.032   7.417 -0.13 +0.18    -0.346     3.084
ATOM     58  HN  ARG P   9      11.114 -11.469   6.941 -0.17 -0.05    +0.163     3.084
ATOM     59  CA  ARG P   9      11.443 -12.865   8.529 -0.30 -0.15    +0.172     3.084
ATOM     60  CB  ARG P   9      12.548 -13.842   8.854 +0.00 -0.06    +0.042     3.084
ATOM     61  C   ARG P   9      11.191 -11.922   9.693 -0.22 -0.17    +0.243     3.084
ATOM     62  N   PRO P  10      11.825 -10.750   9.663 -0.11 +0.14    -0.336     3.084
ATOM     63  CD  PRO P  10      13.197 -10.543   9.188 -0.08 -0.05    +0.127     3.084
ATOM     64  CA  PRO P  10      11.367  -9.565  10.365 -0.22 -0.07    +0.188     3.084
ATOM     65  CG  PRO P  10      13.758  -9.745  10.334 -0.05 -0.01    +0.022     3.084
ATOM     66  CB  PRO P  10      12.662  -9.135  11.077 -0.11 -0.01    +0.038     3.084
ATOM     67  O   ARG P   9      10.523 -12.286  10.663 -0.12 +0.26    -0.271     3.084
ATOM     68  C   PRO P  10      10.916  -8.487   9.371 -0.31 -0.04    +0.196     3.084
ATOM     69  O   PRO P  10      10.566  -7.356   9.748 -0.04 +0.14    -0.646     3.084
ATOM     70  OXT PRO P  10      10.893  -8.715   8.155 -0.15 +0.06    -0.646     3.084
ATOM     71  CB  SER P   8      12.342 -10.196   5.424 -0.15 -0.04    +0.199     3.084
ATOM     72  OG  SER P   8      12.585  -9.076   6.257 -0.11 +0.04    -0.398     3.084
ATOM     73  HG  SER P   8      11.898  -8.959   6.902 +0.08 -0.02    +0.209     3.084
TER
ENDMDL
MODEL        3
USER    Run = 3
USER    Cluster Rank = 2
USER    Number of conformations in this cluster = 1
USER  
USER    RMSD from reference structure       = 4.795 A
USER  
USER    Estimated Free Energy of Binding    =   -4.68 kcal/mol  [=(1)+(2)+(3)-(4)]
USER    Estimated Inhibition Constant, Ki   =  369.53 uM (micromolar)  [Temperature = 298.15 K]
USER    
USER    (1) Final Intermolecular Energy     =  -12.44 kcal/mol
USER        vdW + Hbond + desolv Energy     =  -10.68 kcal/mol
USER        Electrostatic Energy            =   -1.75 kcal/mol
USER    (2) Final Total Internal Energy     =   +3.56 kcal/mol
USER    (3) Torsional Free Energy           =   +7.76 kcal/mol
USER    (4) Unbound System's Energy  [=(2)] =   +3.56 kcal/mol
USER    
USER    
USER  
USER    DPF = dock.dpf
USER    NEWDPF move	lig3d3t.pdbqt
USER    NEWDPF about	9.642000 -14.316000 1.762000
USER    NEWDPF tran0	10.980503 -14.342194 1.957538
USER    NEWDPF axisangle0	0.790315 -0.611982 0.029655 -152.938336
USER    NEWDPF quaternion0	0.768379 -0.594996 0.028832 -0.233969
USER    NEWDPF dihe0	-38.31 55.92 70.60 -156.69 144.30 -109.32 -130.72 -48.72 64.26 -61.29 94.99 148.86 -47.96 124.80 170.31 -14.16 115.52 -39.59 -138.30 -108.32 178.43 166.48 -179.58 115.35 172.42 -144.80 
USER  
USER                              x       y       z    vdW   Elec        q     RMS 
ATOM      1  CA  LEU P   6      12.641 -14.705   3.177 +0.01 -0.06    +0.177     4.795
ATOM      2  N   LEU P   6      12.940 -13.326   3.507 -0.05 +0.06    -0.346     4.795
ATOM      3  C   PHE P   5      11.963 -12.462   3.748 -0.01 -0.07    +0.241     4.795
ATOM      4  O   PHE P   5      10.796 -12.662   3.407 +0.50 +0.09    -0.271     4.795
ATOM      5  HN  LEU P   6      13.911 -13.016   3.553 +0.09 -0.01    +0.163     4.795
ATOM      6  CA  PHE P   5      12.356 -11.189   4.497 -0.01 -0.05    +0.180     4.795
ATOM      7  N   PHE P   5      11.768 -11.053   5.829 +0.48 +0.14    -0.346     4.795
ATOM      8  C   ASN P   4      12.353 -10.302   6.757 -0.16 -0.05    +0.241     4.795
ATOM      9  O   ASN P   4      13.328  -9.592   6.510 -0.08 +0.04    -0.271     4.795
ATOM     10  HN  PHE P   5      10.899 -11.540   6.049 -0.47 -0.12    +0.163     4.795
ATOM     11  CA  ASN P   4      11.762 -10.368   8.166 -0.22 -0.04    +0.185     4.795
ATOM     12  N   ASN P   4      11.651 -11.753   8.621 -0.14 +0.19    -0.346     4.795
ATOM     13  C   GLY P   3      12.653 -12.618   8.488 -0.15 -0.22    +0.243     4.795
ATOM     14  O   GLY P   3      13.704 -12.334   7.914 -0.09 +0.26    -0.272     4.795
ATOM     15  HN  ASN P   4      10.781 -12.065   9.052 +0.06 -0.10    +0.163     4.795
ATOM     16  CA  GLY P   3      12.443 -13.999   9.077 +0.26 -0.53    +0.332     4.795
ATOM     17  N   GLY P   3      12.763 -13.984  10.528 -0.14 +0.13    -0.071     4.795
ATOM     18  HN3 GLY P   3      11.949 -13.753  11.098 -0.45 -0.59    +0.274     4.795
ATOM     19  HN2 GLY P   3      12.936 -14.921  10.892 -0.20 -0.63    +0.274     4.795
ATOM     20  HN1 GLY P   3      13.545 -13.353  10.704 +0.06 -0.33    +0.274     4.795
ATOM     21  CB  ASN P   4      12.597  -9.541   9.153 -0.14 -0.03    +0.137     4.795
ATOM     22  CG  ASN P   4      11.830  -8.345   9.713 -0.20 -0.05    +0.217     4.795
ATOM     23  OD1 ASN P   4      11.981  -7.217   9.240 -0.14 +0.04    -0.274     4.795
ATOM     24  ND2 ASN P   4      11.001  -8.593  10.726 -0.03 +0.15    -0.370     4.795
ATOM     25 2HD2 ASN P   4      10.875  -9.526  11.117 -0.25 -0.08    +0.159     4.795
ATOM     26 1HD2 ASN P   4      10.488  -7.794  11.100 -0.27 -0.07    +0.159     4.795
ATOM     27  CB  PHE P   5      13.880 -11.014   4.540 -0.18 -0.00    +0.073     4.795
ATOM     28  CG  PHE P   5      14.339  -9.642   4.137 -0.17 -0.00    -0.056     4.795
ATOM     29  CD1 PHE P   5      13.425  -8.602   4.005 -0.23 -0.00    +0.007     4.795
ATOM     30  CE1 PHE P   5      13.846  -7.323   3.647 -0.17 +0.00    +0.001     4.795
ATOM     31  CZ  PHE P   5      15.194  -7.071   3.416 -0.18 +0.00    +0.000     4.795
ATOM     32  CE2 PHE P   5      16.121  -8.108   3.541 -0.20 +0.00    +0.001     4.795
ATOM     33  CD2 PHE P   5      15.687  -9.387   3.902 -0.21 +0.00    +0.007     4.795
ATOM     34  CB  LEU P   6      11.917 -15.389   4.339 -0.22 -0.01    +0.038     4.795
ATOM     35  CG  LEU P   6      10.633 -14.716   4.842 -0.40 +0.01    -0.020     4.795
ATOM     36  CD2 LEU P   6      10.789 -14.095   6.224 -0.42 -0.00    +0.009     4.795
ATOM     37  CD1 LEU P   6       9.488 -15.693   4.813 -0.47 -0.00    +0.009     4.795
ATOM     38  C   LEU P   6      11.738 -14.716   1.948 -0.11 -0.05    +0.241     4.795
ATOM     39  O   LEU P   6      11.319 -15.769   1.485 -0.01 +0.09    -0.271     4.795
ATOM     40  N   GLN P   7      11.450 -13.540   1.417 -0.12 +0.00    -0.346     4.795
ATOM     41  HN  GLN P   7      11.757 -12.693   1.894 +0.09 -0.00    +0.163     4.795
ATOM     42  CA  GLN P   7      10.712 -13.419   0.180 -0.29 +0.03    +0.177     4.795
ATOM     43  CB  GLN P   7      11.658 -13.046  -0.959 -0.42 +0.00    +0.044     4.795
ATOM     44  CG  GLN P   7      12.592 -11.897  -0.666 -0.63 +0.01    +0.105     4.795
ATOM     45  CD  GLN P   7      13.518 -12.183   0.473 -0.28 +0.01    +0.215     4.795
ATOM     46  OE1 GLN P   7      13.990 -13.303   0.639 -0.13 -0.01    -0.274     4.795
ATOM     47  NE2 GLN P   7      13.787 -11.172   1.272 -0.20 -0.04    -0.370     4.795
ATOM     48 2HE2 GLN P   7      14.418 -11.368   2.048 +0.08 +0.02    +0.159     4.795
ATOM     49 1HE2 GLN P   7      13.394 -10.241   1.135 +0.10 +0.03    +0.159     4.795
ATOM     50  C   GLN P   7       9.962 -14.719  -0.113 -0.26 +0.02    +0.241     4.795
ATOM     51  O   GLN P   7       8.758 -14.818   0.069 -0.30 -0.04    -0.271     4.795
ATOM     52  N   SER P   8      10.681 -15.711  -0.611 -0.13 -0.02    -0.344     4.795
ATOM     53  HN  SER P   8      11.646 -15.539  -0.894 +0.10 +0.03    +0.163     4.795
ATOM     54  CA  SER P   8      10.123 -17.032  -0.760 -0.26 +0.00    +0.200     4.795
ATOM     55  C   SER P   8       8.874 -16.812  -1.594 -0.24 -0.02    +0.243     4.795
ATOM     56  O   SER P   8       7.882 -17.527  -1.454 -0.18 +0.05    -0.271     4.795
ATOM     57  N   ARG P   9       8.898 -15.809  -2.451 -0.14 +0.01    -0.346     4.795
ATOM     58  HN  ARG P   9       9.646 -15.117  -2.402 +0.10 +0.01    +0.163     4.795
ATOM     59  CA  ARG P   9       7.872 -15.689  -3.455 -0.30 -0.02    +0.172     4.795
ATOM     60  CB  ARG P   9       8.483 -15.695  -4.836 -0.41 -0.01    +0.042     4.795
ATOM     61  C   ARG P   9       6.955 -16.886  -3.261 -0.19 -0.05    +0.243     4.795
ATOM     62  N   PRO P  10       5.941 -16.732  -2.411 -0.10 +0.02    -0.336     4.795
ATOM     63  CD  PRO P  10       5.999 -15.985  -1.150 -0.01 +0.02    +0.127     4.795
ATOM     64  CA  PRO P  10       4.722 -17.520  -2.456 -0.21 -0.00    +0.188     4.795
ATOM     65  CG  PRO P  10       5.393 -16.994  -0.214 -0.44 +0.00    +0.022     4.795
ATOM     66  CB  PRO P  10       4.606 -17.951  -0.983 -0.40 +0.00    +0.038     4.795
ATOM     67  O   ARG P   9       7.220 -17.970  -3.782 -0.12 +0.10    -0.271     4.795
ATOM     68  C   PRO P  10       3.527 -16.646  -2.857 -0.22 +0.00    +0.196     4.795
ATOM     69  O   PRO P  10       3.382 -16.232  -4.019 -0.01 +0.07    -0.646     4.795
ATOM     70  OXT PRO P  10       2.664 -16.332  -2.028 -0.05 -0.05    -0.646     4.795
ATOM     71  CB  SER P   8       9.765 -17.617   0.607 -0.24 -0.01    +0.199     4.795
ATOM     72  OG  SER P   8       8.886 -16.773   1.329 -0.26 +0.00    -0.398     4.795
ATOM     73  HG  SER P   8       8.236 -17.269   1.812 +0.14 +0.01    +0.209     4.795
TER
ENDMDL
MODEL        2
USER    Run = 2
USER    Cluster Rank = 3
USER    Number of conformations in this cluster = 1
USER  
USER    RMSD from reference structure       = 3.856 A
USER  
USER    Estimated Free Energy of Binding    =   -3.72 kcal/mol  [=(1)+(2)+(3)-(4)]
USER    Estimated Inhibition Constant, Ki   =    1.88 mM (millimolar)  [Temperature = 298.15 K]
USER    
USER    (1) Final Intermolecular Energy     =  -11.48 kcal/mol
USER        vdW + Hbond + desolv Energy     =  -11.33 kcal/mol
USER        Electrostatic Energy            =   -0.14 kcal/mol
USER    (2) Final Total Internal Energy     =   +2.46 kcal/mol
USER    (3) Torsional Free Energy           =   +7.76 kcal/mol
USER    (4) Unbound System's Energy  [=(2)] =   +2.46 kcal/mol
USER    
USER    
USER  
USER    DPF = dock.dpf
USER    NEWDPF move	lig3d3t.pdbqt
USER    NEWDPF about	9.642000 -14.316000 1.762000
USER    NEWDPF tran0	11.697236 -14.328184 0.349963
USER    NEWDPF axisangle0	-0.569162 0.820836 -0.047773 -98.654084
USER    NEWDPF quaternion0	-0.431676 0.622557 -0.036233 -0.651741
USER    NEWDPF dihe0	-157.56 68.25 134.46 -154.11 180.00 -32.29 179.55 178.36 -121.27 -13.81 -157.64 153.99 -64.90 -103.30 177.48 -146.21 -125.54 -10.97 45.37 151.56 156.28 -144.72 -138.28 88.47 -109.53 -50.57 
USER  
USER                              x       y       z    vdW   Elec        q     RMS 
ATOM      1  CA  LEU P   6      11.372 -16.393   0.263 +0.15 -0.01    +0.177     3.856
ATOM      2  N   LEU P   6      10.582 -16.512   1.473 -0.08 +0.08    -0.346     3.856
ATOM      3  C   PHE P   5      10.100 -15.432   2.074 -0.24 -0.03    +0.241     3.856
ATOM      4  O   PHE P   5      10.535 -14.299   1.859 -0.19 +0.01    -0.271     3.856
ATOM      5  HN  LEU P   6      10.395 -17.434   1.866 +0.03 -0.05    +0.163     3.856
ATOM      6  CA  PHE P   5       8.948 -15.660   3.052 -0.32 -0.02    +0.180     3.856
ATOM      7  N   PHE P   5       7.665 -15.975   2.428 -0.04 -0.01    -0.346     3.856
ATOM      8  C   ASN P   4       7.550 -16.999   1.587 -0.27 +0.01    +0.241     3.856
ATOM      9  O   ASN P   4       8.467 -17.798   1.395 -0.36 -0.05    -0.271     3.856
ATOM     10  HN  PHE P   5       6.847 -15.403   2.639 +0.28 +0.01    +0.163     3.856
ATOM     11  CA  ASN P   4       6.217 -17.137   0.851 -0.36 +0.01    +0.185     3.856
ATOM     12  N   ASN P   4       6.161 -16.237  -0.300 -0.15 -0.05    -0.346     3.856
ATOM     13  C   GLY P   3       7.105 -16.239  -1.239 -0.22 +0.01    +0.243     3.856
ATOM     14  O   GLY P   3       8.115 -16.938  -1.165 -0.19 +0.02    -0.272     3.856
ATOM     15  HN  ASN P   4       5.377 -15.591  -0.387 +0.09 +0.05    +0.163     3.856
ATOM     16  CA  GLY P   3       6.887 -15.319  -2.424 +0.23 +0.00    +0.332     3.856
ATOM     17  N   GLY P   3       7.156 -16.053  -3.688 -0.28 +0.02    -0.071     3.856
ATOM     18  HN3 GLY P   3       6.366 -16.008  -4.333 -0.34 -0.12    +0.274     3.856
ATOM     19  HN2 GLY P   3       7.846 -15.576  -4.268 +0.12 -0.06    +0.274     3.856
ATOM     20  HN1 GLY P   3       7.427 -17.014  -3.481 +0.12 -0.06    +0.274     3.856
ATOM     21  CB  ASN P   4       5.976 -18.588   0.414 -0.34 +0.01    +0.137     3.856
ATOM     22  CG  ASN P   4       4.513 -18.865   0.075 -0.37 +0.01    +0.217     3.856
ATOM     23  OD1 ASN P   4       4.199 -19.394  -0.993 -0.30 -0.06    -0.274     3.856
ATOM     24  ND2 ASN P   4       3.614 -18.506   0.989 -0.20 +0.04    -0.370     3.856
ATOM     25 2HD2 ASN P   4       3.874 -18.068   1.873 -0.12 -0.04    +0.159     3.856
ATOM     26 1HD2 ASN P   4       2.636 -18.690   0.764 -0.09 -0.00    +0.159     3.856
ATOM     27  CB  PHE P   5       9.320 -16.698   4.119 -0.00 -0.01    +0.073     3.856
ATOM     28  CG  PHE P   5       9.398 -16.132   5.507 -0.39 +0.01    -0.056     3.856
ATOM     29  CD1 PHE P   5       8.559 -16.604   6.512 -0.48 -0.00    +0.007     3.856
ATOM     30  CE1 PHE P   5       8.637 -16.094   7.806 -0.58 -0.00    +0.001     3.856
ATOM     31  CZ  PHE P   5       9.560 -15.099   8.109 -0.22 -0.00    +0.000     3.856
ATOM     32  CE2 PHE P   5      10.404 -14.613   7.108 -0.49 -0.00    +0.001     3.856
ATOM     33  CD2 PHE P   5      10.319 -15.134   5.814 -0.43 -0.00    +0.007     3.856
ATOM     34  CB  LEU P   6      10.469 -16.423  -0.972 +0.00 +0.00    +0.038     3.856
ATOM     35  CG  LEU P   6      10.713 -15.340  -2.031 -0.33 -0.00    -0.020     3.856
ATOM     36  CD2 LEU P   6       9.761 -14.158  -1.903 -0.19 +0.00    +0.009     3.856
ATOM     37  CD1 LEU P   6      10.653 -15.939  -3.411 -0.41 +0.00    +0.009     3.856
ATOM     38  C   LEU P   6      12.115 -15.062   0.309 -0.26 -0.02    +0.241     3.856
ATOM     39  O   LEU P   6      11.573 -14.027  -0.058 -0.25 -0.01    -0.271     3.856
ATOM     40  N   GLN P   7      13.361 -15.096   0.751 -0.15 +0.05    -0.346     3.856
ATOM     41  HN  GLN P   7      13.731 -15.970   1.121 -0.44 -0.06    +0.163     3.856
ATOM     42  CA  GLN P   7      14.214 -13.929   0.724 -0.08 +0.00    +0.177     3.856
ATOM     43  CB  GLN P   7      13.773 -12.984  -0.391 -0.04 +0.00    +0.044     3.856
ATOM     44  CG  GLN P   7      12.638 -12.057  -0.034 -0.56 +0.01    +0.105     3.856
ATOM     45  CD  GLN P   7      13.022 -11.049   1.003 -0.26 +0.02    +0.215     3.856
ATOM     46  OE1 GLN P   7      12.201 -10.628   1.810 -0.32 -0.01    -0.274     3.856
ATOM     47  NE2 GLN P   7      14.277 -10.653   0.992 +0.20 -0.06    -0.370     3.856
ATOM     48 2HE2 GLN P   7      14.538  -9.966   1.698 +0.06 +0.03    +0.159     3.856
ATOM     49 1HE2 GLN P   7      14.960 -11.003   0.320 +0.29 +0.03    +0.159     3.856
ATOM     50  C   GLN P   7      14.200 -13.237   2.088 -0.17 +0.01    +0.241     3.856
ATOM     51  O   GLN P   7      15.150 -12.577   2.480 -0.14 -0.08    -0.271     3.856
ATOM     52  N   SER P   8      13.089 -13.360   2.796 -0.06 +0.04    -0.344     3.856
ATOM     53  HN  SER P   8      12.266 -13.785   2.369 +0.10 -0.02    +0.163     3.856
ATOM     54  CA  SER P   8      13.024 -12.904   4.162 -0.15 -0.05    +0.200     3.856
ATOM     55  C   SER P   8      13.941 -11.695   4.191 -0.13 -0.01    +0.243     3.856
ATOM     56  O   SER P   8      14.026 -10.938   3.225 -0.16 -0.02    -0.271     3.856
ATOM     57  N   ARG P   9      14.619 -11.486   5.304 -0.05 +0.01    -0.346     3.856
ATOM     58  HN  ARG P   9      14.379 -12.005   6.149 +0.05 -0.06    +0.163     3.856
ATOM     59  CA  ARG P   9      15.695 -10.530   5.329 -0.10 +0.05    +0.172     3.856
ATOM     60  CB  ARG P   9      15.905  -9.937   3.956 -0.24 +0.01    +0.042     3.856
ATOM     61  C   ARG P   9      15.281  -9.460   6.326 -0.03 +0.00    +0.243     3.856
ATOM     62  N   PRO P  10      14.016  -9.044   6.268 -0.01 +0.02    -0.336     3.856
ATOM     63  CD  PRO P  10      13.245  -8.850   5.035 -0.20 -0.01    +0.127     3.856
ATOM     64  CA  PRO P  10      13.312  -8.439   7.384 -0.11 -0.02    +0.188     3.856
ATOM     65  CG  PRO P  10      12.695  -7.472   5.278 -0.26 -0.00    +0.022     3.856
ATOM     66  CB  PRO P  10      12.725  -7.187   6.708 -0.04 -0.00    +0.038     3.856
ATOM     67  O   ARG P   9      16.115  -8.934   7.064 -0.01 -0.01    -0.271     3.856
ATOM     68  C   PRO P  10      12.190  -9.361   7.879 -0.22 -0.03    +0.196     3.856
ATOM     69  O   PRO P  10      11.993  -9.556   9.090 -0.02 +0.15    -0.646     3.856
ATOM     70  OXT PRO P  10      11.442  -9.935   7.080 -0.29 +0.04    -0.646     3.856
ATOM     71  CB  SER P   8      13.530 -13.990   5.112 -0.23 -0.10    +0.199     3.856
ATOM     72  OG  SER P   8      14.862 -14.371   4.817 -0.20 +0.17    -0.398     3.856
ATOM     73  HG  SER P   8      15.327 -13.694   4.339 +0.09 +0.02    +0.209     3.856
TER
ENDMDL
MODEL        9
USER    Run = 9
USER    Cluster Rank = 4
USER    Number of conformations in this cluster = 1
USER  
USER    RMSD from reference structure       = 5.622 A
USER  
USER    Estimated Free Energy of Binding    =   -1.36 kcal/mol  [=(1)+(2)+(3)-(4)]
USER    Estimated Inhibition Constant, Ki   =  100.75 mM (millimolar)  [Temperature = 298.15 K]
USER    
USER    (1) Final Intermolecular Energy     =   -9.12 kcal/mol
USER        vdW + Hbond + desolv Energy     =   -9.09 kcal/mol
USER        Electrostatic Energy            =   -0.03 kcal/mol
USER    (2) Final Total Internal Energy     =   -2.11 kcal/mol
USER    (3) Torsional Free Energy           =   +7.76 kcal/mol
USER    (4) Unbound System's Energy  [=(2)] =   -2.11 kcal/mol
USER    
USER    
USER  
USER    DPF = dock.dpf
USER    NEWDPF move	lig3d3t.pdbqt
USER    NEWDPF about	9.642000 -14.316000 1.762000
USER    NEWDPF tran0	13.295893 -14.919388 3.745544
USER    NEWDPF axisangle0	0.610013 0.356871 -0.707480 -151.829865
USER    NEWDPF quaternion0	0.591673 0.346141 -0.686210 -0.243362
USER    NEWDPF dihe0	92.38 -128.28 152.58 -38.63 144.72 58.23 -70.26 -46.28 -11.59 -171.37 11.88 -120.13 -58.12 -145.75 179.75 52.24 180.00 36.08 23.75 -154.35 -83.57 -48.96 -179.47 -162.00 7.74 -45.91 
USER  
USER                              x       y       z    vdW   Elec        q     RMS 
ATOM      1  CA  LEU P   6      13.132 -13.122   2.688 -0.20 -0.02    +0.177     5.622
ATOM      2  N   LEU P   6      13.592 -12.239   3.741 -0.05 +0.03    -0.346     5.622
ATOM      3  C   PHE P   5      14.641 -11.450   3.553 -0.18 +0.04    +0.241     5.622
ATOM      4  O   PHE P   5      15.460 -11.634   2.649 -0.22 -0.10    -0.271     5.622
ATOM      5  HN  LEU P   6      13.103 -12.224   4.637 +0.08 -0.04    +0.163     5.622
ATOM      6  CA  PHE P   5      14.784 -10.272   4.515 -0.14 +0.02    +0.180     5.622
ATOM      7  N   PHE P   5      14.645  -8.954   3.898 -0.07 -0.02    -0.346     5.622
ATOM      8  C   ASN P   4      13.578  -8.198   4.140 -0.15 -0.00    +0.241     5.622
ATOM      9  O   ASN P   4      12.732  -8.505   4.979 -0.17 +0.02    -0.271     5.622
ATOM     10  HN  PHE P   5      15.376  -8.609   3.274 +0.05 +0.02    +0.163     5.622
ATOM     11  CA  ASN P   4      13.439  -6.921   3.310 -0.07 +0.00    +0.185     5.622
ATOM     12  N   ASN P   4      12.122  -6.849   2.679 -0.05 +0.01    -0.346     5.622
ATOM     13  C   GLY P   3      11.000  -6.911   3.390 -0.24 -0.02    +0.243     5.622
ATOM     14  O   GLY P   3      10.992  -7.105   4.606 +0.19 +0.01    -0.272     5.622
ATOM     15  HN  ASN P   4      12.063  -6.747   1.666 +0.21 +0.00    +0.163     5.622
ATOM     16  CA  GLY P   3       9.701  -6.739   2.628 +0.03 -0.05    +0.332     5.622
ATOM     17  N   GLY P   3       9.952  -5.999   1.363 -0.44 +0.01    -0.071     5.622
ATOM     18  HN3 GLY P   3      10.171  -6.627   0.589 -0.09 -0.07    +0.274     5.622
ATOM     19  HN2 GLY P   3       9.098  -5.589   0.984 +0.15 -0.01    +0.274     5.622
ATOM     20  HN1 GLY P   3      10.682  -5.301   1.508 +0.14 -0.02    +0.274     5.622
ATOM     21  CB  ASN P   4      13.696  -5.675   4.169 -0.15 -0.00    +0.137     5.622
ATOM     22  CG  ASN P   4      14.132  -6.021   5.590 -0.09 -0.01    +0.217     5.622
ATOM     23  OD1 ASN P   4      13.314  -6.062   6.512 -0.08 +0.01    -0.274     5.622
ATOM     24  ND2 ASN P   4      15.428  -6.272   5.771 -0.00 +0.01    -0.370     5.622
ATOM     25 2HD2 ASN P   4      16.105  -6.239   5.008 +0.03 -0.00    +0.159     5.622
ATOM     26 1HD2 ASN P   4      15.720  -6.503   6.720 +0.02 -0.00    +0.159     5.622
ATOM     27  CB  PHE P   5      13.850 -10.422   5.724 -0.13 -0.01    +0.073     5.622
ATOM     28  CG  PHE P   5      14.571 -10.444   7.041 -0.07 +0.01    -0.056     5.622
ATOM     29  CD1 PHE P   5      15.336 -11.545   7.410 -0.11 -0.00    +0.007     5.622
ATOM     30  CE1 PHE P   5      16.020 -11.566   8.623 -0.08 -0.00    +0.001     5.622
ATOM     31  CZ  PHE P   5      15.945 -10.476   9.485 -0.02 -0.00    +0.000     5.622
ATOM     32  CE2 PHE P   5      15.177  -9.366   9.128 -0.02 -0.00    +0.001     5.622
ATOM     33  CD2 PHE P   5      14.496  -9.356   7.907 -0.04 -0.00    +0.007     5.622
ATOM     34  CB  LEU P   6      14.247 -13.364   1.667 -0.23 +0.00    +0.038     5.622
ATOM     35  CG  LEU P   6      13.845 -13.330   0.187 -0.18 -0.00    -0.020     5.622
ATOM     36  CD2 LEU P   6      13.383 -11.953  -0.273 -0.60 +0.00    +0.009     5.622
ATOM     37  CD1 LEU P   6      12.799 -14.375  -0.092 -0.36 -0.00    +0.009     5.622
ATOM     38  C   LEU P   6      12.735 -14.451   3.320 -0.15 -0.07    +0.241     5.622
ATOM     39  O   LEU P   6      13.582 -15.281   3.625 -0.11 +0.12    -0.271     5.622
ATOM     40  N   GLN P   7      11.441 -14.653   3.507 -0.11 +0.10    -0.346     5.622
ATOM     41  HN  GLN P   7      10.789 -13.895   3.313 +0.06 -0.04    +0.163     5.622
ATOM     42  CA  GLN P   7      10.925 -15.919   3.978 -0.05 -0.05    +0.177     5.622
ATOM     43  CB  GLN P   7      10.845 -15.916   5.503 -0.27 -0.01    +0.044     5.622
ATOM     44  CG  GLN P   7      10.350 -14.629   6.116 -0.41 -0.04    +0.105     5.622
ATOM     45  CD  GLN P   7       9.687 -14.839   7.440 -0.43 -0.14    +0.215     5.622
ATOM     46  OE1 GLN P   7       8.969 -15.813   7.640 -0.48 +0.15    -0.274     5.622
ATOM     47  NE2 GLN P   7       9.921 -13.926   8.359 -0.11 +0.40    -0.370     5.622
ATOM     48 2HE2 GLN P   7       9.468 -14.070   9.261 -0.48 -0.28    +0.159     5.622
ATOM     49 1HE2 GLN P   7      10.517 -13.116   8.193 +0.06 -0.13    +0.159     5.622
ATOM     50  C   GLN P   7       9.562 -16.199   3.342 -0.28 -0.03    +0.241     5.622
ATOM     51  O   GLN P   7       8.535 -16.198   4.004 -0.20 +0.03    -0.271     5.622
ATOM     52  N   SER P   8       9.556 -16.400   2.035 -0.18 +0.04    -0.344     5.622
ATOM     53  HN  SER P   8      10.408 -16.237   1.497 +0.06 -0.03    +0.163     5.622
ATOM     54  CA  SER P   8       8.364 -16.844   1.357 -0.30 +0.01    +0.200     5.622
ATOM     55  C   SER P   8       8.525 -16.314  -0.057 -0.22 +0.01    +0.243     5.622
ATOM     56  O   SER P   8       9.608 -15.889  -0.457 -0.22 -0.01    -0.271     5.622
ATOM     57  N   ARG P   9       7.460 -16.356  -0.835 -0.10 -0.01    -0.346     5.622
ATOM     58  HN  ARG P   9       6.642 -16.894  -0.547 +0.11 +0.01    +0.163     5.622
ATOM     59  CA  ARG P   9       7.448 -15.645  -2.087 -0.28 +0.00    +0.172     5.622
ATOM     60  CB  ARG P   9       7.722 -14.177  -1.862 -0.26 +0.01    +0.042     5.622
ATOM     61  C   ARG P   9       8.537 -16.277  -2.937 -0.25 -0.03    +0.243     5.622
ATOM     62  N   PRO P  10       8.406 -16.168  -4.259 -0.15 +0.05    -0.336     5.622
ATOM     63  CD  PRO P  10       7.138 -16.251  -4.992 -0.23 -0.04    +0.127     5.622
ATOM     64  CA  PRO P  10       9.515 -16.246  -5.191 -0.27 -0.02    +0.188     5.622
ATOM     65  CG  PRO P  10       7.514 -17.239  -6.062 -0.43 -0.01    +0.022     5.622
ATOM     66  CB  PRO P  10       8.965 -17.262  -6.207 -0.05 -0.00    +0.038     5.622
ATOM     67  O   ARG P   9       9.426 -16.954  -2.417 -0.29 +0.03    -0.271     5.622
ATOM     68  C   PRO P  10       9.754 -14.888  -5.863 -0.14 -0.02    +0.196     5.622
ATOM     69  O   PRO P  10      10.868 -14.569  -6.312 +0.41 +0.06    -0.646     5.622
ATOM     70  OXT PRO P  10       8.835 -14.069  -5.983 +0.06 +0.10    -0.646     5.622
ATOM     71  CB  SER P   8       7.121 -16.249   2.019 -0.01 +0.01    +0.199     5.622
ATOM     72  OG  SER P   8       5.941 -16.552   1.296 -0.18 -0.02    -0.398     5.622
ATOM     73  HG  SER P   8       5.765 -15.911   0.618 +0.13 +0.04    +0.209     5.622
TER
ENDMDL
MODEL        6
USER    Run = 6
USER    Cluster Rank = 5
USER    Number of conformations in this cluster = 1
USER  
USER    RMSD from reference structure       = 5.159 A
USER  
USER    Estimated Free Energy of Binding    =   -0.70 kcal/mol  [=(1)+(2)+(3)-(4)]
USER    Estimated Inhibition Constant, Ki   =  308.74 mM (millimolar)  [Temperature = 298.15 K]
USER    
USER    (1) Final Intermolecular Energy     =   -8.45 kcal/mol
USER        vdW + Hbond + desolv Energy     =   -8.69 kcal/mol
USER        Electrostatic Energy            =   +0.24 kcal/mol
USER    (2) Final Total Internal Energy     =   -3.84 kcal/mol
USER    (3) Torsional Free Energy           =   +7.76 kcal/mol
USER    (4) Unbound System's Energy  [=(2)] =   -3.84 kcal/mol
USER    
USER    
USER  
USER    DPF = dock.dpf
USER    NEWDPF move	lig3d3t.pdbqt
USER    NEWDPF about	9.642000 -14.316000 1.762000
USER    NEWDPF tran0	12.598992 -13.068748 4.397634
USER    NEWDPF axisangle0	-0.471959 0.803340 -0.363179 -174.675181
USER    NEWDPF quaternion0	-0.471450 0.802473 -0.362786 -0.046451
USER    NEWDPF dihe0	-103.61 -9.95 -166.33 108.40 113.43 42.67 79.13 -23.88 45.59 175.36 150.14 -179.83 -163.85 -163.15 105.45 -179.64 -157.35 -134.78 166.81 -61.86 -158.76 -38.31 -133.06 7.93 -155.77 -158.86 
USER  
USER                              x       y       z    vdW   Elec        q     RMS 
ATOM      1  CA  LEU P   6      12.161 -13.618   6.369 -0.25 -0.11    +0.177     5.159
ATOM      2  N   LEU P   6      12.668 -12.424   7.015 -0.08 +0.22    -0.346     5.159
ATOM      3  C   PHE P   5      13.967 -12.157   7.020 -0.07 -0.17    +0.241     5.159
ATOM      4  O   PHE P   5      14.824 -13.011   6.785 +0.33 +0.34    -0.271     5.159
ATOM      5  HN  LEU P   6      12.019 -11.783   7.471 +0.06 -0.08    +0.163     5.159
ATOM      6  CA  PHE P   5      14.359 -10.712   7.320 -0.06 -0.05    +0.180     5.159
ATOM      7  N   PHE P   5      13.986  -9.746   6.288 -0.00 +0.04    -0.346     5.159
ATOM      8  C   ASN P   4      14.617  -8.579   6.188 -0.04 -0.01    +0.241     5.159
ATOM      9  O   ASN P   4      15.613  -8.310   6.860 -0.01 +0.00    -0.271     5.159
ATOM     10  HN  PHE P   5      13.233  -9.969   5.637 +0.07 -0.02    +0.163     5.159
ATOM     11  CA  ASN P   4      14.036  -7.568   5.199 -0.11 -0.00    +0.185     5.159
ATOM     12  N   ASN P   4      13.657  -8.221   3.947 -0.08 -0.00    -0.346     5.159
ATOM     13  C   GLY P   3      14.126  -9.420   3.610 -0.15 +0.01    +0.243     5.159
ATOM     14  O   GLY P   3      14.958 -10.022   4.288 -0.11 -0.04    -0.272     5.159
ATOM     15  HN  ASN P   4      13.015  -7.744   3.313 +0.07 +0.00    +0.163     5.159
ATOM     16  CA  GLY P   3      13.591 -10.025   2.327 +0.31 +0.03    +0.332     5.159
ATOM     17  N   GLY P   3      14.720 -10.406   1.439 -0.05 -0.01    -0.071     5.159
ATOM     18  HN3 GLY P   3      15.349 -11.076   1.884 +0.14 +0.07    +0.274     5.159
ATOM     19  HN2 GLY P   3      14.414 -10.988   0.659 +0.15 +0.04    +0.274     5.159
ATOM     20  HN1 GLY P   3      15.212  -9.570   1.124 +0.22 +0.06    +0.274     5.159
ATOM     21  CB  ASN P   4      12.837  -6.829   5.807 +0.01 -0.01    +0.137     5.159
ATOM     22  CG  ASN P   4      12.395  -7.423   7.142 +0.01 -0.02    +0.217     5.159
ATOM     23  OD1 ASN P   4      11.796  -8.500   7.189 -0.25 +0.02    -0.274     5.159
ATOM     24  ND2 ASN P   4      12.692  -6.719   8.233 -0.04 +0.03    -0.370     5.159
ATOM     25 2HD2 ASN P   4      13.187  -5.828   8.194 +0.02 -0.01    +0.159     5.159
ATOM     26 1HD2 ASN P   4      12.397  -7.116   9.125 +0.04 -0.02    +0.159     5.159
ATOM     27  CB  PHE P   5      13.857 -10.272   8.703 -0.07 -0.02    +0.073     5.159
ATOM     28  CG  PHE P   5      13.436 -11.415   9.580 -0.09 +0.03    -0.056     5.159
ATOM     29  CD1 PHE P   5      14.373 -12.332  10.046 -0.07 -0.01    +0.007     5.159
ATOM     30  CE1 PHE P   5      13.991 -13.386  10.872 -0.16 -0.00    +0.001     5.159
ATOM     31  CZ  PHE P   5      12.659 -13.534  11.244 -0.09 -0.00    +0.000     5.159
ATOM     32  CE2 PHE P   5      11.708 -12.624  10.779 -0.20 -0.00    +0.001     5.159
ATOM     33  CD2 PHE P   5      12.102 -11.569   9.951 -0.21 -0.00    +0.007     5.159
ATOM     34  CB  LEU P   6      10.634 -13.572   6.277 -0.25 -0.02    +0.038     5.159
ATOM     35  CG  LEU P   6       9.904 -14.920   6.240 -0.52 +0.01    -0.020     5.159
ATOM     36  CD2 LEU P   6       8.399 -14.777   6.051 -0.45 -0.00    +0.009     5.159
ATOM     37  CD1 LEU P   6      10.221 -15.717   7.478 -0.58 -0.01    +0.009     5.159
ATOM     38  C   LEU P   6      12.746 -13.681   4.961 -0.18 -0.10    +0.241     5.159
ATOM     39  O   LEU P   6      12.659 -14.701   4.288 -0.23 +0.10    -0.271     5.159
ATOM     40  N   GLN P   7      13.351 -12.589   4.524 -0.04 +0.08    -0.346     5.159
ATOM     41  HN  GLN P   7      13.320 -11.745   5.094 +0.07 -0.04    +0.163     5.159
ATOM     42  CA  GLN P   7      14.057 -12.559   3.263 -0.20 +0.00    +0.177     5.159
ATOM     43  CB  GLN P   7      15.363 -13.340   3.375 -0.34 +0.01    +0.044     5.159
ATOM     44  CG  GLN P   7      15.394 -14.385   4.464 -0.36 -0.01    +0.105     5.159
ATOM     45  CD  GLN P   7      14.991 -15.740   3.973 -0.37 -0.07    +0.215     5.159
ATOM     46  OE1 GLN P   7      15.007 -16.010   2.777 +0.47 +0.04    -0.274     5.159
ATOM     47  NE2 GLN P   7      14.626 -16.606   4.894 -0.04 +0.30    -0.370     5.159
ATOM     48 2HE2 GLN P   7      14.351 -17.529   4.559 +0.10 -0.07    +0.159     5.159
ATOM     49 1HE2 GLN P   7      14.612 -16.382   5.888 +0.06 -0.37    +0.159     5.159
ATOM     50  C   GLN P   7      13.164 -13.109   2.149 -0.19 -0.01    +0.241     5.159
ATOM     51  O   GLN P   7      13.296 -14.248   1.728 -0.19 +0.03    -0.271     5.159
ATOM     52  N   SER P   8      12.220 -12.298   1.701 -0.16 -0.00    -0.344     5.159
ATOM     53  HN  SER P   8      12.042 -11.418   2.185 +0.08 +0.00    +0.163     5.159
ATOM     54  CA  SER P   8      11.437 -12.640   0.539 -0.26 +0.02    +0.200     5.159
ATOM     55  C   SER P   8      10.427 -13.647   1.059 -0.17 +0.03    +0.243     5.159
ATOM     56  O   SER P   8       9.360 -13.835   0.476 -0.64 -0.08    -0.271     5.159
ATOM     57  N   ARG P   9      10.761 -14.321   2.143 -0.11 +0.04    -0.346     5.159
ATOM     58  HN  ARG P   9      11.722 -14.293   2.483 +0.08 -0.03    +0.163     5.159
ATOM     59  CA  ARG P   9       9.772 -15.096   2.847 -0.31 -0.02    +0.172     5.159
ATOM     60  CB  ARG P   9       8.424 -14.419   2.777 -0.30 +0.00    +0.042     5.159
ATOM     61  C   ARG P   9       9.737 -16.452   2.162 -0.30 -0.03    +0.243     5.159
ATOM     62  N   PRO P  10       9.100 -16.516   0.993 -0.14 +0.00    -0.336     5.159
ATOM     63  CD  PRO P  10       7.865 -15.798   0.662 -0.34 +0.01    +0.127     5.159
ATOM     64  CA  PRO P  10       9.364 -17.525  -0.017 -0.35 -0.01    +0.188     5.159
ATOM     65  CG  PRO P  10       7.045 -16.924   0.096 -0.41 +0.00    +0.022     5.159
ATOM     66  CB  PRO P  10       7.933 -18.001  -0.327 -0.25 -0.00    +0.038     5.159
ATOM     67  O   ARG P   9      10.178 -17.453   2.728 -0.19 +0.06    -0.271     5.159
ATOM     68  C   PRO P  10      10.002 -16.893  -1.260 -0.23 +0.00    +0.196     5.159
ATOM     69  O   PRO P  10      10.055 -17.496  -2.345 -0.07 +0.08    -0.646     5.159
ATOM     70  OXT PRO P  10      10.482 -15.754  -1.218 -0.29 -0.06    -0.646     5.159
ATOM     71  CB  SER P   8      12.325 -13.268  -0.536 -0.24 +0.01    +0.199     5.159
ATOM     72  OG  SER P   8      13.589 -12.633  -0.615 -0.25 -0.00    -0.398     5.159
ATOM     73  HG  SER P   8      14.162 -12.893   0.096 +0.16 +0.01    +0.209     5.159
TER
ENDMDL
MODEL        7
USER    Run = 7
USER    Cluster Rank = 6
USER    Number of conformations in this cluster = 1
USER  
USER    RMSD from reference structure       = 3.781 A
USER  
USER    Estimated Free Energy of Binding    =   -0.10 kcal/mol  [=(1)+(2)+(3)-(4)]
USER    Estimated Inhibition Constant, Ki   =  842.72 mM (millimolar)  [Temperature = 298.15 K]
USER    
USER    (1) Final Intermolecular Energy     =   -7.86 kcal/mol
USER        vdW + Hbond + desolv Energy     =   -7.02 kcal/mol
USER        Electrostatic Energy            =   -0.84 kcal/mol
USER    (2) Final Total Internal Energy     =   -4.36 kcal/mol
USER    (3) Torsional Free Energy           =   +7.76 kcal/mol
USER    (4) Unbound System's Energy  [=(2)] =   -4.36 kcal/mol
USER    
USER    
USER  
USER    DPF = dock.dpf
USER    NEWDPF move	lig3d3t.pdbqt
USER    NEWDPF about	9.642000 -14.316000 1.762000
USER    NEWDPF tran0	11.448738 -14.224820 4.435884
USER    NEWDPF axisangle0	-0.300819 -0.317435 -0.899301 151.274576
USER    NEWDPF quaternion0	-0.291417 -0.307514 -0.871193 0.248059
USER    NEWDPF dihe0	-168.48 40.66 -128.38 -59.22 -22.40 -47.37 -144.03 139.31 64.38 21.42 162.44 176.82 177.44 16.95 -180.00 -141.93 -72.05 146.64 170.36 170.79 9.50 145.37 -107.32 72.50 -136.34 146.48 
USER  
USER                              x       y       z    vdW   Elec        q     RMS 
ATOM      1  CA  LEU P   6       9.993 -13.268   3.277 +1.61 -0.04    +0.177     3.781
ATOM      2  N   LEU P   6      10.244 -13.974   2.036 -0.12 +0.00    -0.346     3.781
ATOM      3  C   PHE P   5      11.230 -14.856   1.948 -0.18 -0.05    +0.241     3.781
ATOM      4  O   PHE P   5      12.161 -14.898   2.755 -0.12 +0.10    -0.271     3.781
ATOM      5  HN  LEU P   6       9.655 -13.792   1.223 +0.09 +0.03    +0.163     3.781
ATOM      6  CA  PHE P   5      11.151 -15.847   0.788 -0.21 -0.03    +0.180     3.781
ATOM      7  N   PHE P   5       9.820 -16.396   0.537 -0.15 +0.02    -0.346     3.781
ATOM      8  C   ASN P   4       8.879 -15.660  -0.046 -0.22 +0.01    +0.241     3.781
ATOM      9  O   ASN P   4       9.112 -14.545  -0.515 -0.36 -0.05    -0.271     3.781
ATOM     10  HN  PHE P   5       9.610 -17.355   0.814 +0.09 -0.01    +0.163     3.781
ATOM     11  CA  ASN P   4       7.473 -16.259  -0.100 -0.28 +0.01    +0.185     3.781
ATOM     12  N   ASN P   4       7.006 -16.373  -1.480 -0.10 -0.00    -0.346     3.781
ATOM     13  C   GLY P   3       7.690 -17.050  -2.399 -0.13 -0.05    +0.243     3.781
ATOM     14  O   GLY P   3       8.787 -17.558  -2.170 +0.10 +0.08    -0.272     3.781
ATOM     15  HN  ASN P   4       6.131 -15.922  -1.747 +0.08 +0.02    +0.163     3.781
ATOM     16  CA  GLY P   3       7.057 -17.165  -3.771 -0.15 -0.09    +0.332     3.781
ATOM     17  N   GLY P   3       6.344 -18.464  -3.891 -0.25 +0.02    -0.071     3.781
ATOM     18  HN3 GLY P   3       6.986 -19.241  -4.047 -0.26 -0.14    +0.274     3.781
ATOM     19  HN2 GLY P   3       5.955 -18.770  -2.999 +0.07 -0.06    +0.274     3.781
ATOM     20  HN1 GLY P   3       5.632 -18.403  -4.620 +0.15 -0.10    +0.274     3.781
ATOM     21  CB  ASN P   4       7.429 -17.624   0.600 -0.26 +0.01    +0.137     3.781
ATOM     22  CG  ASN P   4       6.198 -18.441   0.217 -0.29 +0.01    +0.217     3.781
ATOM     23  OD1 ASN P   4       6.220 -19.205  -0.751 -0.27 +0.01    -0.274     3.781
ATOM     24  ND2 ASN P   4       5.118 -18.282   0.980 -0.13 +0.00    -0.370     3.781
ATOM     25 2HD2 ASN P   4       5.100 -17.650   1.781 +0.11 -0.01    +0.159     3.781
ATOM     26 1HD2 ASN P   4       4.295 -18.828   0.725 +0.09 -0.00    +0.159     3.781
ATOM     27  CB  PHE P   5      11.761 -15.257  -0.492 -0.27 +0.00    +0.073     3.781
ATOM     28  CG  PHE P   5      12.216 -13.834  -0.340 -0.32 -0.00    -0.056     3.781
ATOM     29  CD1 PHE P   5      13.426 -13.541   0.280 -0.37 +0.00    +0.007     3.781
ATOM     30  CE1 PHE P   5      13.861 -12.225   0.411 +0.24 +0.00    +0.001     3.781
ATOM     31  CZ  PHE P   5      13.085 -11.181  -0.082 -0.44 +0.00    +0.000     3.781
ATOM     32  CE2 PHE P   5      11.866 -11.461  -0.703 -0.08 +0.00    +0.001     3.781
ATOM     33  CD2 PHE P   5      11.440 -12.787  -0.830 -0.36 +0.00    +0.007     3.781
ATOM     34  CB  LEU P   6       8.752 -13.832   3.973 -0.22 -0.01    +0.038     3.781
ATOM     35  CG  LEU P   6       8.965 -14.474   5.350 -0.48 +0.01    -0.020     3.781
ATOM     36  CD2 LEU P   6       8.433 -15.899   5.429 -0.29 -0.00    +0.009     3.781
ATOM     37  CD1 LEU P   6       8.364 -13.610   6.426 -0.10 -0.00    +0.009     3.781
ATOM     38  C   LEU P   6      11.204 -13.456   4.184 +0.07 -0.09    +0.241     3.781
ATOM     39  O   LEU P   6      11.926 -12.510   4.474 -0.06 +0.11    -0.271     3.781
ATOM     40  N   GLN P   7      11.428 -14.683   4.623 -0.13 +0.12    -0.346     3.781
ATOM     41  HN  GLN P   7      10.748 -15.414   4.419 +0.09 -0.04    +0.163     3.781
ATOM     42  CA  GLN P   7      12.611 -15.020   5.383 -0.25 -0.08    +0.177     3.781
ATOM     43  CB  GLN P   7      13.862 -14.576   4.629 -0.37 -0.02    +0.044     3.781
ATOM     44  CG  GLN P   7      15.125 -15.319   4.988 +0.26 -0.09    +0.105     3.781
ATOM     45  CD  GLN P   7      15.338 -16.534   4.141 -0.41 -0.07    +0.215     3.781
ATOM     46  OE1 GLN P   7      15.047 -16.534   2.950 +0.80 +0.05    -0.274     3.781
ATOM     47  NE2 GLN P   7      15.850 -17.583   4.749 -0.35 +0.10    -0.370     3.781
ATOM     48 2HE2 GLN P   7      15.995 -18.411   4.172 +0.01 +0.01    +0.159     3.781
ATOM     49 1HE2 GLN P   7      16.092 -17.583   5.740 -0.46 -0.14    +0.159     3.781
ATOM     50  C   GLN P   7      12.538 -14.389   6.775 -0.07 -0.20    +0.241     3.781
ATOM     51  O   GLN P   7      11.916 -14.917   7.684 -0.49 +0.25    -0.271     3.781
ATOM     52  N   SER P   8      13.217 -13.267   6.946 -0.03 +0.35    -0.344     3.781
ATOM     53  HN  SER P   8      13.847 -12.944   6.211 +0.05 -0.12    +0.163     3.781
ATOM     54  CA  SER P   8      13.081 -12.492   8.154 -0.11 -0.18    +0.200     3.781
ATOM     55  C   SER P   8      12.425 -11.203   7.694 -0.15 -0.10    +0.243     3.781
ATOM     56  O   SER P   8      11.841 -10.468   8.489 -0.32 +0.07    -0.271     3.781
ATOM     57  N   ARG P   9      12.534 -10.902   6.414 -0.08 +0.10    -0.346     3.781
ATOM     58  HN  ARG P   9      13.188 -11.418   5.824 +0.07 -0.05    +0.163     3.781
ATOM     59  CA  ARG P   9      11.732  -9.850   5.846 +0.09 -0.03    +0.172     3.781
ATOM     60  CB  ARG P   9      11.851  -8.592   6.672 -0.34 -0.00    +0.042     3.781
ATOM     61  C   ARG P   9      12.265  -9.630   4.440 -0.20 -0.03    +0.243     3.781
ATOM     62  N   PRO P  10      13.586  -9.702   4.281 -0.07 +0.01    -0.336     3.781
ATOM     63  CD  PRO P  10      14.581  -9.202   5.236 -0.10 +0.00    +0.127     3.781
ATOM     64  CA  PRO P  10      14.233 -10.012   3.019 -0.22 +0.02    +0.188     3.781
ATOM     65  CG  PRO P  10      15.463  -8.409   4.312 -0.17 +0.00    +0.022     3.781
ATOM     66  CB  PRO P  10      15.272  -8.879   2.945 -0.10 +0.00    +0.038     3.781
ATOM     67  O   ARG P   9      11.509  -9.289   3.528 -0.27 +0.03    -0.271     3.781
ATOM     68  C   PRO P  10      14.930 -11.377   3.090 -0.24 +0.04    +0.196     3.781
ATOM     69  O   PRO P  10      16.129 -11.514   2.797 -0.03 -0.42    -0.646     3.781
ATOM     70  OXT PRO P  10      14.312 -12.387   3.448 +0.05 -0.04    -0.646     3.781
ATOM     71  CB  SER P   8      14.454 -12.213   8.765 +0.25 -0.21    +0.199     3.781
ATOM     72  OG  SER P   8      14.457 -11.026   9.538 -0.01 +0.19    -0.398     3.781
ATOM     73  HG  SER P   8      13.578 -10.700   9.691 +0.05 -0.09    +0.209     3.781
TER
ENDMDL
MODEL        8
USER    Run = 8
USER    Cluster Rank = 7
USER    Number of conformations in this cluster = 1
USER  
USER    RMSD from reference structure       = 2.970 A
USER  
USER    Estimated Free Energy of Binding    =   +2.81 kcal/mol  [=(1)+(2)+(3)-(4)]
USER    
USER    (1) Final Intermolecular Energy     =   -4.94 kcal/mol
USER        vdW + Hbond + desolv Energy     =   -5.19 kcal/mol
USER        Electrostatic Energy            =   +0.25 kcal/mol
USER    (2) Final Total Internal Energy     =   -5.47 kcal/mol
USER    (3) Torsional Free Energy           =   +7.76 kcal/mol
USER    (4) Unbound System's Energy  [=(2)] =   -5.47 kcal/mol
USER    
USER    
USER  
USER    DPF = dock.dpf
USER    NEWDPF move	lig3d3t.pdbqt
USER    NEWDPF about	9.642000 -14.316000 1.762000
USER    NEWDPF tran0	11.413149 -11.746897 7.420752
USER    NEWDPF axisangle0	0.268442 0.492187 0.828064 111.288449
USER    NEWDPF quaternion0	0.221612 0.406324 0.683608 0.564330
USER    NEWDPF dihe0	-120.62 -131.07 155.00 -148.27 -179.28 -92.76 155.78 179.29 -43.91 -52.47 -178.78 -18.75 49.87 -55.35 179.80 155.41 -179.94 -102.57 -91.97 108.59 -179.83 -7.62 -17.62 -63.90 151.39 16.16 
USER  
USER                              x       y       z    vdW   Elec        q     RMS 
ATOM      1  CA  LEU P   6      10.276 -13.495   7.248 -0.38 -0.11    +0.177     2.970
ATOM      2  N   LEU P   6      10.293 -13.590   5.801 +0.14 +0.19    -0.346     2.970
ATOM      3  C   PHE P   5       9.206 -13.955   5.135 +0.05 -0.10    +0.241     2.970
ATOM      4  O   PHE P   5       8.257 -14.530   5.671 -0.30 +0.07    -0.271     2.970
ATOM      5  HN  LEU P   6      11.149 -13.373   5.291 -0.16 -0.09    +0.163     2.970
ATOM      6  CA  PHE P   5       9.178 -13.612   3.646 +0.44 -0.04    +0.180     2.970
ATOM      7  N   PHE P   5      10.392 -13.960   2.911 -0.13 +0.05    -0.346     2.970
ATOM      8  C   ASN P   4      11.315 -14.746   3.456 -0.20 -0.07    +0.241     2.970
ATOM      9  O   ASN P   4      11.141 -15.317   4.533 -0.28 +0.08    -0.271     2.970
ATOM     10  HN  PHE P   5      10.534 -13.595   1.969 +0.09 +0.00    +0.163     2.970
ATOM     11  CA  ASN P   4      12.626 -14.904   2.684 +0.55 -0.07    +0.185     2.970
ATOM     12  N   ASN P   4      12.511 -14.340   1.339 -0.10 +0.04    -0.346     2.970
ATOM     13  C   GLY P   3      12.153 -13.075   1.137 -0.26 +0.00    +0.243     2.970
ATOM     14  O   GLY P   3      11.827 -12.322   2.055 -0.23 +0.00    -0.272     2.970
ATOM     15  HN  ASN P   4      12.710 -14.933   0.534 +0.06 -0.02    +0.163     2.970
ATOM     16  CA  GLY P   3      12.153 -12.588  -0.298 -0.34 +0.02    +0.332     2.970
ATOM     17  N   GLY P   3      12.285 -11.108  -0.330 -0.42 -0.01    -0.071     2.970
ATOM     18  HN3 GLY P   3      13.063 -10.805  -0.916 +0.15 +0.05    +0.274     2.970
ATOM     19  HN2 GLY P   3      11.527 -10.667  -0.850 +0.22 +0.07    +0.274     2.970
ATOM     20  HN1 GLY P   3      12.359 -10.746   0.622 +0.17 +0.03    +0.274     2.970
ATOM     21  CB  ASN P   4      13.794 -14.258   3.442 -0.26 -0.03    +0.137     2.970
ATOM     22  CG  ASN P   4      14.931 -15.239   3.715 -0.35 -0.04    +0.217     2.970
ATOM     23  OD1 ASN P   4      16.096 -14.954   3.431 -0.32 -0.10    -0.274     2.970
ATOM     24  ND2 ASN P   4      14.593 -16.402   4.271 -0.12 +0.20    -0.370     2.970
ATOM     25 2HD2 ASN P   4      13.628 -16.637   4.506 -0.23 -0.08    +0.159     2.970
ATOM     26 1HD2 ASN P   4      15.352 -17.058   4.453 +0.02 -0.07    +0.159     2.970
ATOM     27  CB  PHE P   5       7.929 -14.189   2.965 +1.14 +0.00    +0.073     2.970
ATOM     28  CG  PHE P   5       8.228 -14.940   1.699 -0.35 -0.01    -0.056     2.970
ATOM     29  CD1 PHE P   5       8.331 -16.327   1.708 -0.37 +0.00    +0.007     2.970
ATOM     30  CE1 PHE P   5       8.593 -17.031   0.535 -0.36 +0.00    +0.001     2.970
ATOM     31  CZ  PHE P   5       8.755 -16.349  -0.666 -0.33 +0.00    +0.000     2.970
ATOM     32  CE2 PHE P   5       8.658 -14.956  -0.688 -0.38 +0.00    +0.001     2.970
ATOM     33  CD2 PHE P   5       8.394 -14.260   0.496 -0.45 +0.00    +0.007     2.970
ATOM     34  CB  LEU P   6      11.280 -14.473   7.861 -0.43 -0.04    +0.038     2.970
ATOM     35  CG  LEU P   6      12.766 -14.129   7.697 +0.57 +0.03    -0.020     2.970
ATOM     36  CD2 LEU P   6      13.154 -12.826   8.384 -0.07 -0.01    +0.009     2.970
ATOM     37  CD1 LEU P   6      13.136 -14.105   6.238 -0.18 -0.01    +0.009     2.970
ATOM     38  C   LEU P   6      10.663 -12.071   7.635 -0.03 -0.09    +0.241     2.970
ATOM     39  O   LEU P   6      11.222 -11.331   6.836 -0.59 +0.08    -0.271     2.970
ATOM     40  N   GLN P   7      10.371 -11.696   8.870 +0.19 +0.12    -0.346     2.970
ATOM     41  HN  GLN P   7       9.831 -12.324   9.463 +0.12 -0.11    +0.163     2.970
ATOM     42  CA  GLN P   7      10.797 -10.421   9.402 -0.10 -0.05    +0.177     2.970
ATOM     43  CB  GLN P   7      11.569 -10.629  10.703 -0.25 -0.02    +0.044     2.970
ATOM     44  CG  GLN P   7      12.884  -9.896  10.793 -0.08 -0.03    +0.105     2.970
ATOM     45  CD  GLN P   7      14.062 -10.805  10.635 -0.02 -0.09    +0.215     2.970
ATOM     46  OE1 GLN P   7      14.365 -11.606  11.512 -0.02 +0.13    -0.274     2.970
ATOM     47  NE2 GLN P   7      14.739 -10.690   9.512 +0.01 +0.14    -0.370     2.970
ATOM     48 2HE2 GLN P   7      15.542 -11.309   9.405 +0.02 -0.08    +0.159     2.970
ATOM     49 1HE2 GLN P   7      14.487 -10.023   8.782 +0.03 -0.04    +0.159     2.970
ATOM     50  C   GLN P   7      11.634  -9.672   8.364 -0.24 -0.04    +0.241     2.970
ATOM     51  O   GLN P   7      12.758 -10.043   8.060 -0.09 +0.07    -0.271     2.970
ATOM     52  N   SER P   8      11.058  -8.630   7.788 -0.17 +0.03    -0.344     2.970
ATOM     53  HN  SER P   8      10.068  -8.448   7.954 +0.06 -0.01    +0.163     2.970
ATOM     54  CA  SER P   8      11.807  -7.747   6.929 +0.23 -0.02    +0.200     2.970
ATOM     55  C   SER P   8      12.366  -8.663   5.856 -0.22 -0.02    +0.243     2.970
ATOM     56  O   SER P   8      13.539  -9.032   5.884 -0.07 +0.02    -0.271     2.970
ATOM     57  N   ARG P   9      11.531  -9.059   4.915 +0.01 +0.03    -0.346     2.970
ATOM     58  HN  ARG P   9      10.528  -8.906   5.028 +0.27 +0.02    +0.163     2.970
ATOM     59  CA  ARG P   9      12.029  -9.706   3.729 -0.25 -0.02    +0.172     2.970
ATOM     60  CB  ARG P   9      13.033  -8.823   3.028 +0.05 +0.00    +0.042     2.970
ATOM     61  C   ARG P   9      12.676 -10.999   4.198 -0.15 -0.04    +0.243     2.970
ATOM     62  N   PRO P  10      14.006 -11.008   4.283 -0.05 +0.00    -0.336     2.970
ATOM     63  CD  PRO P  10      14.918 -10.349   3.342 -0.25 +0.02    +0.127     2.970
ATOM     64  CA  PRO P  10      14.755 -11.908   5.140 -0.15 -0.00    +0.188     2.970
ATOM     65  CG  PRO P  10      15.873 -11.477   3.063 -0.07 +0.01    +0.022     2.970
ATOM     66  CB  PRO P  10      15.795 -12.451   4.144 +0.22 +0.02    +0.038     2.970
ATOM     67  O   ARG P   9      11.997 -12.012   4.374 -0.05 +0.10    -0.271     2.970
ATOM     68  C   PRO P  10      15.445 -11.132   6.270 -0.09 +0.01    +0.196     2.970
ATOM     69  O   PRO P  10      15.774 -11.683   7.333 -0.01 +0.21    -0.646     2.970
ATOM     70  OXT PRO P  10      15.698  -9.928   6.149 -0.01 -0.07    -0.646     2.970
ATOM     71  CB  SER P   8      12.937  -7.076   7.711 -0.09 -0.02    +0.199     2.970
ATOM     72  OG  SER P   8      13.894  -8.015   8.168 -0.02 +0.04    -0.398     2.970
ATOM     73  HG  SER P   8      14.290  -8.495   7.450 +0.04 -0.02    +0.209     2.970
TER
ENDMDL
MODEL        5
USER    Run = 5
USER    Cluster Rank = 8
USER    Number of conformations in this cluster = 1
USER  
USER    RMSD from reference structure       = 2.618 A
USER  
USER    Estimated Free Energy of Binding    =   +3.91 kcal/mol  [=(1)+(2)+(3)-(4)]
USER    
USER    (1) Final Intermolecular Energy     =   -3.84 kcal/mol
USER        vdW + Hbond + desolv Energy     =   -2.91 kcal/mol
USER        Electrostatic Energy            =   -0.93 kcal/mol
USER    (2) Final Total Internal Energy     =   +1.42 kcal/mol
USER    (3) Torsional Free Energy           =   +7.76 kcal/mol
USER    (4) Unbound System's Energy  [=(2)] =   +1.42 kcal/mol
USER    
USER    
USER  
USER    DPF = dock.dpf
USER    NEWDPF move	lig3d3t.pdbqt
USER    NEWDPF about	9.642000 -14.316000 1.762000
USER    NEWDPF tran0	11.527744 -13.265003 1.772862
USER    NEWDPF axisangle0	0.178594 -0.928695 0.325007 36.639617
USER    NEWDPF quaternion0	0.056136 -0.291908 0.102156 0.949317
USER    NEWDPF dihe0	169.99 -10.08 167.01 -37.90 29.37 -12.70 -146.83 148.51 86.27 -180.00 43.00 75.92 131.69 24.46 174.94 -168.88 83.31 97.41 -129.18 -90.51 -167.25 117.55 -153.15 177.00 172.83 -78.76 
USER  
USER                              x       y       z    vdW   Elec        q     RMS 
ATOM      1  CA  LEU P   6      11.574 -14.649   0.204 -0.31 -0.00    +0.177     2.618
ATOM      2  N   LEU P   6      10.145 -14.864   0.098 -0.12 -0.02    -0.346     2.618
ATOM      3  C   PHE P   5       9.441 -14.271  -0.856 -0.28 +0.05    +0.241     2.618
ATOM      4  O   PHE P   5       9.857 -13.292  -1.482 +0.93 -0.07    -0.271     2.618
ATOM      5  HN  LEU P   6       9.676 -15.478   0.764 +0.11 +0.00    +0.163     2.618
ATOM      6  CA  PHE P   5       8.072 -14.876  -1.163 -0.34 +0.03    +0.180     2.618
ATOM      7  N   PHE P   5       8.082 -15.948  -2.157 -0.12 +0.01    -0.346     2.618
ATOM      8  C   ASN P   4       6.979 -16.643  -2.420 -0.20 -0.03    +0.241     2.618
ATOM      9  O   ASN P   4       5.884 -16.341  -1.946 -0.18 -0.01    -0.271     2.618
ATOM     10  HN  PHE P   5       8.945 -16.165  -2.656 +0.10 -0.01    +0.163     2.618
ATOM     11  CA  ASN P   4       7.135 -17.856  -3.338 +0.29 -0.07    +0.185     2.618
ATOM     12  N   ASN P   4       5.830 -18.395  -3.716 -0.08 +0.08    -0.346     2.618
ATOM     13  C   GLY P   3       4.871 -17.624  -4.220 -0.14 -0.05    +0.243     2.618
ATOM     14  O   GLY P   3       4.990 -16.404  -4.333 -0.05 +0.10    -0.272     2.618
ATOM     15  HN  ASN P   4       5.650 -19.391  -3.590 +0.06 -0.03    +0.163     2.618
ATOM     16  CA  GLY P   3       3.594 -18.318  -4.651 -0.08 -0.04    +0.332     2.618
ATOM     17  N   GLY P   3       3.601 -18.520  -6.124 -0.14 +0.04    -0.071     2.618
ATOM     18  HN3 GLY P   3       4.191 -17.837  -6.601 +0.10 -0.17    +0.274     2.618
ATOM     19  HN2 GLY P   3       4.106 -19.364  -6.392 -0.23 -0.34    +0.274     2.618
ATOM     20  HN1 GLY P   3       2.645 -18.515  -6.479 +0.07 -0.09    +0.274     2.618
ATOM     21  CB  ASN P   4       7.955 -17.501  -4.585 -0.21 -0.03    +0.137     2.618
ATOM     22  CG  ASN P   4       8.322 -16.020  -4.646 -0.28 -0.04    +0.217     2.618
ATOM     23  OD1 ASN P   4       9.435 -15.628  -4.288 -0.25 +0.02    -0.274     2.618
ATOM     24  ND2 ASN P   4       7.383 -15.193  -5.103 +0.33 +0.15    -0.370     2.618
ATOM     25 2HD2 ASN P   4       6.463 -15.518  -5.399 -0.46 -0.10    +0.159     2.618
ATOM     26 1HD2 ASN P   4       7.628 -14.204  -5.144 -0.18 -0.05    +0.159     2.618
ATOM     27  CB  PHE P   5       7.355 -15.313   0.121 -0.36 +0.02    +0.073     2.618
ATOM     28  CG  PHE P   5       8.209 -16.144   1.034 -0.33 -0.00    -0.056     2.618
ATOM     29  CD1 PHE P   5       9.060 -17.116   0.515 -0.39 +0.00    +0.007     2.618
ATOM     30  CE1 PHE P   5       9.867 -17.880   1.355 +0.30 -0.00    +0.001     2.618
ATOM     31  CZ  PHE P   5       9.832 -17.677   2.730 +0.45 -0.00    +0.000     2.618
ATOM     32  CE2 PHE P   5       8.979 -16.708   3.264 -0.29 -0.00    +0.001     2.618
ATOM     33  CD2 PHE P   5       8.174 -15.947   2.411 -0.33 -0.00    +0.007     2.618
ATOM     34  CB  LEU P   6      12.059 -13.711  -0.904 +0.30 +0.00    +0.038     2.618
ATOM     35  CG  LEU P   6      13.302 -12.865  -0.597 -0.30 -0.00    -0.020     2.618
ATOM     36  CD2 LEU P   6      13.653 -11.896  -1.718 +0.02 -0.00    +0.009     2.618
ATOM     37  CD1 LEU P   6      14.468 -13.758  -0.266 +1.47 +0.00    +0.009     2.618
ATOM     38  C   LEU P   6      11.860 -14.012   1.560 -0.21 -0.02    +0.241     2.618
ATOM     39  O   LEU P   6      12.266 -12.860   1.641 -0.20 +0.00    -0.271     2.618
ATOM     40  N   GLN P   7      11.657 -14.772   2.624 -0.06 +0.10    -0.346     2.618
ATOM     41  HN  GLN P   7      11.240 -15.694   2.501 -0.30 -0.07    +0.163     2.618
ATOM     42  CA  GLN P   7      12.010 -14.334   3.955 -0.23 -0.06    +0.177     2.618
ATOM     43  CB  GLN P   7      13.288 -15.033   4.414 -0.35 -0.02    +0.044     2.618
ATOM     44  CG  GLN P   7      13.386 -15.279   5.900 +1.04 -0.09    +0.105     2.618
ATOM     45  CD  GLN P   7      12.330 -14.555   6.674 -0.19 -0.15    +0.215     2.618
ATOM     46  OE1 GLN P   7      11.139 -14.758   6.463 -0.44 +0.13    -0.274     2.618
ATOM     47  NE2 GLN P   7      12.757 -13.701   7.580 -0.05 +0.42    -0.370     2.618
ATOM     48 2HE2 GLN P   7      12.037 -13.208   8.108 +0.07 -0.15    +0.159     2.618
ATOM     49 1HE2 GLN P   7      13.747 -13.533   7.756 -0.26 -0.33    +0.159     2.618
ATOM     50  C   GLN P   7      12.158 -12.812   3.985 -0.11 -0.07    +0.241     2.618
ATOM     51  O   GLN P   7      11.260 -12.075   3.607 +0.92 +0.11    -0.271     2.618
ATOM     52  N   SER P   8      13.291 -12.343   4.482 -0.04 +0.07    -0.344     2.618
ATOM     53  HN  SER P   8      13.946 -12.984   4.930 +0.08 -0.05    +0.163     2.618
ATOM     54  CA  SER P   8      13.614 -10.941   4.399 -0.15 -0.01    +0.200     2.618
ATOM     55  C   SER P   8      12.631 -10.279   5.348 -0.15 -0.04    +0.243     2.618
ATOM     56  O   SER P   8      12.084  -9.216   5.057 -0.24 +0.03    -0.271     2.618
ATOM     57  N   ARG P   9      12.377 -10.910   6.479 -0.09 +0.10    -0.346     2.618
ATOM     58  HN  ARG P   9      12.684 -11.875   6.602 +0.07 -0.07    +0.163     2.618
ATOM     59  CA  ARG P   9      11.671 -10.239   7.539 -0.18 -0.03    +0.172     2.618
ATOM     60  CB  ARG P   9      12.037 -10.837   8.877 -0.25 -0.02    +0.042     2.618
ATOM     61  C   ARG P   9      12.087  -8.780   7.463 -0.22 -0.03    +0.243     2.618
ATOM     62  N   PRO P  10      13.364  -8.506   7.729 -0.04 +0.04    -0.336     2.618
ATOM     63  CD  PRO P  10      14.173  -9.165   8.759 -0.03 -0.02    +0.127     2.618
ATOM     64  CA  PRO P  10      14.054  -7.323   7.248 -0.07 -0.01    +0.188     2.618
ATOM     65  CG  PRO P  10      14.755  -7.962   9.451 -0.03 -0.00    +0.022     2.618
ATOM     66  CB  PRO P  10      14.695  -6.816   8.552 -0.05 -0.00    +0.038     2.618
ATOM     67  O   ARG P   9      11.248  -7.897   7.277 -0.07 +0.02    -0.271     2.618
ATOM     68  C   PRO P  10      15.136  -7.704   6.229 -0.03 -0.00    +0.196     2.618
ATOM     69  O   PRO P  10      15.712  -6.848   5.538 +0.04 +0.00    -0.646     2.618
ATOM     70  OXT PRO P  10      15.472  -8.884   6.072 +0.05 -0.02    -0.646     2.618
ATOM     71  CB  SER P   8      13.415 -10.431   2.971 -0.26 +0.00    +0.199     2.618
ATOM     72  OG  SER P   8      13.606  -9.030   2.878 +0.16 -0.03    -0.398     2.618
ATOM     73  HG  SER P   8      13.674  -8.624   3.734 +0.09 +0.00    +0.209     2.618
TER
ENDMDL
MODEL       10
USER    Run = 10
USER    Cluster Rank = 9
USER    Number of conformations in this cluster = 1
USER  
USER    RMSD from reference structure       = 4.051 A
USER  
USER    Estimated Free Energy of Binding    =  +16.37 kcal/mol  [=(1)+(2)+(3)-(4)]
USER    
USER    (1) Final Intermolecular Energy     =   +8.61 kcal/mol
USER        vdW + Hbond + desolv Energy     =   +8.80 kcal/mol
USER        Electrostatic Energy            =   -0.18 kcal/mol
USER    (2) Final Total Internal Energy     =  +19.87 kcal/mol
USER    (3) Torsional Free Energy           =   +7.76 kcal/mol
USER    (4) Unbound System's Energy  [=(2)] =  +19.87 kcal/mol
USER    
USER    
USER  
USER    DPF = dock.dpf
USER    NEWDPF move	lig3d3t.pdbqt
USER    NEWDPF about	9.642000 -14.316000 1.762000
USER    NEWDPF tran0	14.276511 -13.809215 4.659818
USER    NEWDPF axisangle0	0.790648 -0.017285 0.612027 99.571402
USER    NEWDPF quaternion0	0.603766 -0.013199 0.467365 0.645648
USER    NEWDPF dihe0	-151.50 110.69 -61.82 149.91 -1.10 -68.56 -140.36 -12.40 -180.00 -169.26 99.85 -86.89 -130.72 95.22 -179.98 -36.17 -167.65 -71.44 -72.03 -37.52 139.05 -104.60 -163.11 54.65 109.53 177.32 
USER  
USER                              x       y       z    vdW   Elec        q     RMS 
ATOM      1  CA  LEU P   6      13.547 -15.396   5.812 +1.61 -0.15    +0.177     4.051
ATOM      2  N   LEU P   6      12.181 -15.371   5.326 -0.15 +0.11    -0.346     4.051
ATOM      3  C   PHE P   5      11.685 -14.278   4.762 -0.22 -0.09    +0.241     4.051
ATOM      4  O   PHE P   5      12.198 -13.165   4.897 -0.14 +0.11    -0.271     4.051
ATOM      5  HN  LEU P   6      11.597 -16.201   5.420 +0.08 -0.01    +0.163     4.051
ATOM      6  CA  PHE P   5      10.434 -14.468   3.906 -0.28 -0.05    +0.180     4.051
ATOM      7  N   PHE P   5      10.681 -14.569   2.468 -0.11 +0.05    -0.346     4.051
ATOM      8  C   ASN P   4       9.948 -13.876   1.602 -0.13 +0.02    +0.241     4.051
ATOM      9  O   ASN P   4       9.128 -13.031   1.962 +5.61 -0.09    -0.271     4.051
ATOM     10  HN  PHE P   5      11.424 -15.178   2.126 -0.08 -0.05    +0.163     4.051
ATOM     11  CA  ASN P   4      10.163 -14.186   0.120 -0.31 +0.02    +0.185     4.051
ATOM     12  N   ASN P   4      10.778 -15.501  -0.055 -0.14 -0.01    -0.346     4.051
ATOM     13  C   GLY P   3      10.224 -16.605   0.438 -0.31 -0.02    +0.243     4.051
ATOM     14  O   GLY P   3       9.206 -16.586   1.130 -0.29 +0.01    -0.272     4.051
ATOM     15  HN  ASN P   4      11.655 -15.573  -0.569 +0.10 +0.02    +0.163     4.051
ATOM     16  CA  GLY P   3      10.914 -17.915   0.115 +0.43 -0.07    +0.332     4.051
ATOM     17  N   GLY P   3      10.314 -18.516  -1.105 -0.01 +0.02    -0.071     4.051
ATOM     18  HN3 GLY P   3       9.306 -18.643  -1.014 -0.03 -0.08    +0.274     4.051
ATOM     19  HN2 GLY P   3      10.311 -17.865  -1.890 +0.15 -0.04    +0.274     4.051
ATOM     20  HN1 GLY P   3      10.791 -19.389  -1.332 -0.11 -0.12    +0.274     4.051
ATOM     21  CB  ASN P   4       8.843 -14.099  -0.658 -0.34 +0.04    +0.137     4.051
ATOM     22  CG  ASN P   4       7.692 -13.571   0.195 +0.53 +0.13    +0.217     4.051
ATOM     23  OD1 ASN P   4       7.310 -14.184   1.194 -0.44 -0.11    -0.274     4.051
ATOM     24  ND2 ASN P   4       7.136 -12.427  -0.200 +1.08 -0.24    -0.370     4.051
ATOM     25 2HD2 ASN P   4       7.452 -11.919  -1.027 +0.14 +0.10    +0.159     4.051
ATOM     26 1HD2 ASN P   4       6.366 -12.074   0.370 +0.23 +0.04    +0.159     4.051
ATOM     27  CB  PHE P   5       9.586 -15.644   4.409 -0.41 -0.01    +0.073     4.051
ATOM     28  CG  PHE P   5       9.340 -15.617   5.890 -0.45 +0.02    -0.056     4.051
ATOM     29  CD1 PHE P   5       9.551 -14.452   6.621 -0.48 -0.00    +0.007     4.051
ATOM     30  CE1 PHE P   5       9.310 -14.416   7.992 -0.36 -0.00    +0.001     4.051
ATOM     31  CZ  PHE P   5       8.853 -15.552   8.651 +0.19 -0.00    +0.000     4.051
ATOM     32  CE2 PHE P   5       8.641 -16.729   7.929 -0.35 -0.00    +0.001     4.051
ATOM     33  CD2 PHE P   5       8.885 -16.754   6.553 -0.54 -0.00    +0.007     4.051
ATOM     34  CB  LEU P   6      14.331 -16.530   5.148 +1.81 -0.04    +0.038     4.051
ATOM     35  CG  LEU P   6      15.174 -16.159   3.921 -0.46 +0.01    -0.020     4.051
ATOM     36  CD2 LEU P   6      14.362 -15.478   2.826 +1.05 -0.00    +0.009     4.051
ATOM     37  CD1 LEU P   6      15.885 -17.375   3.391 +0.75 +0.00    +0.009     4.051
ATOM     38  C   LEU P   6      14.201 -14.063   5.462 -0.11 -0.18    +0.241     4.051
ATOM     39  O   LEU P   6      15.001 -13.536   6.224 +0.32 +0.32    -0.271     4.051
ATOM     40  N   GLN P   7      13.848 -13.517   4.311 -0.07 +0.08    -0.346     4.051
ATOM     41  HN  GLN P   7      13.242 -14.041   3.680 +0.09 -0.04    +0.163     4.051
ATOM     42  CA  GLN P   7      14.295 -12.199   3.921 -0.18 +0.00    +0.177     4.051
ATOM     43  CB  GLN P   7      13.495 -11.711   2.715 -0.32 +0.00    +0.044     4.051
ATOM     44  CG  GLN P   7      13.915 -12.296   1.389 -0.14 +0.01    +0.105     4.051
ATOM     45  CD  GLN P   7      13.197 -11.676   0.232 -0.45 +0.02    +0.215     4.051
ATOM     46  OE1 GLN P   7      13.705 -11.639  -0.883 -0.83 -0.02    -0.274     4.051
ATOM     47  NE2 GLN P   7      12.004 -11.181   0.487 -0.20 -0.04    -0.370     4.051
ATOM     48 2HE2 GLN P   7      11.514 -10.758  -0.301 +0.08 +0.02    +0.159     4.051
ATOM     49 1HE2 GLN P   7      11.580 -11.212   1.414 +0.08 +0.02    +0.159     4.051
ATOM     50  C   GLN P   7      14.179 -11.234   5.102 -0.10 -0.02    +0.241     4.051
ATOM     51  O   GLN P   7      14.281 -10.026   4.953 -0.07 -0.00    -0.271     4.051
ATOM     52  N   SER P   8      13.920 -11.778   6.280 -0.04 +0.13    -0.344     4.051
ATOM     53  HN  SER P   8      13.687 -12.770   6.334 +0.05 -0.11    +0.163     4.051
ATOM     54  CA  SER P   8      13.963 -10.992   7.487 -0.06 -0.08    +0.200     4.051
ATOM     55  C   SER P   8      13.934  -9.557   6.994 -0.04 -0.03    +0.243     4.051
ATOM     56  O   SER P   8      14.959  -8.996   6.609 -0.02 +0.01    -0.271     4.051
ATOM     57  N   ARG P   9      12.759  -8.956   6.977 -0.09 +0.04    -0.346     4.051
ATOM     58  HN  ARG P   9      11.907  -9.502   7.107 +0.05 -0.02    +0.163     4.051
ATOM     59  CA  ARG P   9      12.676  -7.532   6.777 -0.11 -0.01    +0.172     4.051
ATOM     60  CB  ARG P   9      13.707  -6.820   7.620 -0.12 -0.00    +0.042     4.051
ATOM     61  C   ARG P   9      12.931  -7.302   5.297 -0.15 -0.01    +0.243     4.051
ATOM     62  N   PRO P  10      12.010  -7.762   4.451 -0.20 +0.02    -0.336     4.051
ATOM     63  CD  PRO P  10      11.275  -9.023   4.604 +0.90 -0.01    +0.127     4.051
ATOM     64  CA  PRO P  10      11.808  -7.239   3.112 -0.30 -0.01    +0.188     4.051
ATOM     65  CG  PRO P  10      11.464  -9.610   3.232 +0.33 -0.00    +0.022     4.051
ATOM     66  CB  PRO P  10      11.794  -8.543   2.294 +3.17 -0.00    +0.038     4.051
ATOM     67  O   ARG P   9      13.996  -6.818   4.911 -0.09 +0.01    -0.271     4.051
ATOM     68  C   PRO P  10      10.454  -6.524   3.009 -0.16 -0.02    +0.196     4.051
ATOM     69  O   PRO P  10       9.385  -7.118   3.225 -0.02 +0.10    -0.646     4.051
ATOM     70  OXT PRO P  10      10.391  -5.326   2.710 +0.10 +0.03    -0.646     4.051
ATOM     71  CB  SER P   8      15.253 -11.272   8.260 -0.06 -0.09    +0.199     4.051
ATOM     72  OG  SER P   8      16.094 -12.181   7.572 -0.08 +0.21    -0.398     4.051
ATOM     73  HG  SER P   8      15.973 -12.134   6.631 +0.00 -0.02    +0.209     4.051
TER
ENDMDL
MODEL        4
USER    Run = 4
USER    Cluster Rank = 10
USER    Number of conformations in this cluster = 1
USER  
USER    RMSD from reference structure       = 4.393 A
USER  
USER    Estimated Free Energy of Binding    =  +26.07 kcal/mol  [=(1)+(2)+(3)-(4)]
USER    
USER    (1) Final Intermolecular Energy     =  +18.31 kcal/mol
USER        vdW + Hbond + desolv Energy     =  +19.63 kcal/mol
USER        Electrostatic Energy            =   -1.32 kcal/mol
USER    (2) Final Total Internal Energy     =   -2.04 kcal/mol
USER    (3) Torsional Free Energy           =   +7.76 kcal/mol
USER    (4) Unbound System's Energy  [=(2)] =   -2.04 kcal/mol
USER    
USER    
USER  
USER    DPF = dock.dpf
USER    NEWDPF move	lig3d3t.pdbqt
USER    NEWDPF about	9.642000 -14.316000 1.762000
USER    NEWDPF tran0	12.651204 -11.122678 0.566652
USER    NEWDPF axisangle0	0.059181 -0.982948 0.174102 -163.041987
USER    NEWDPF quaternion0	0.058534 -0.972204 0.172199 -0.147447
USER    NEWDPF dihe0	-134.78 103.74 -180.00 -45.96 175.94 180.00 121.57 154.33 -42.83 -76.57 -121.53 150.35 112.60 -179.95 33.79 -128.29 -50.13 -55.39 -27.49 3.96 14.98 175.78 -154.62 142.29 -35.00 -7.32 
USER  
USER                              x       y       z    vdW   Elec        q     RMS 
ATOM      1  CA  LEU P   6      12.041 -11.737   2.471 -0.22 -0.01    +0.177     4.393
ATOM      2  N   LEU P   6      13.349 -11.746   3.096 -0.09 +0.01    -0.346     4.393
ATOM      3  C   PHE P   5      14.019 -10.616   3.276 -0.20 +0.01    +0.241     4.393
ATOM      4  O   PHE P   5      13.753  -9.578   2.667 -0.09 -0.02    -0.271     4.393
ATOM      5  HN  LEU P   6      13.757 -12.629   3.400 +0.09 -0.01    +0.163     4.393
ATOM      6  CA  PHE P   5      15.148 -10.656   4.305 -0.17 +0.04    +0.180     4.393
ATOM      7  N   PHE P   5      14.747 -10.329   5.672 -0.02 -0.00    -0.346     4.393
ATOM      8  C   ASN P   4      14.817  -9.079   6.121 -0.03 -0.00    +0.241     4.393
ATOM      9  O   ASN P   4      15.094  -8.131   5.387 -0.04 -0.00    -0.271     4.393
ATOM     10  HN  PHE P   5      14.408 -11.068   6.288 +0.05 -0.03    +0.163     4.393
ATOM     11  CA  ASN P   4      14.548  -8.870   7.612 -0.03 -0.02    +0.185     4.393
ATOM     12  N   ASN P   4      15.082  -9.980   8.400 +0.01 +0.07    -0.346     4.393
ATOM     13  C   GLY P   3      14.356 -11.061   8.672 -0.03 -0.12    +0.243     4.393
ATOM     14  O   GLY P   3      13.174 -11.167   8.345 -0.07 +0.13    -0.272     4.393
ATOM     15  HN  ASN P   4      16.038  -9.925   8.751 +0.02 -0.02    +0.163     4.393
ATOM     16  CA  GLY P   3      15.052 -12.177   9.425 +0.13 -0.32    +0.332     4.393
ATOM     17  N   GLY P   3      14.052 -13.177   9.884 +0.11 +0.10    -0.071     4.393
ATOM     18  HN3 GLY P   3      14.244 -14.109   9.516 -0.42 -0.74    +0.274     4.393
ATOM     19  HN2 GLY P   3      14.150 -13.388  10.877 +0.03 -0.30    +0.274     4.393
ATOM     20  HN1 GLY P   3      13.111 -12.859   9.651 +0.06 -0.31    +0.274     4.393
ATOM     21  CB  ASN P   4      15.131  -7.535   8.096 -0.02 -0.01    +0.137     4.393
ATOM     22  CG  ASN P   4      14.078  -6.434   8.188 -0.06 -0.02    +0.217     4.393
ATOM     23  OD1 ASN P   4      13.635  -6.071   9.280 -0.05 +0.02    -0.274     4.393
ATOM     24  ND2 ASN P   4      13.676  -5.897   7.038 -0.05 +0.02    -0.370     4.393
ATOM     25 2HD2 ASN P   4      14.043  -6.197   6.134 +0.03 -0.01    +0.159     4.393
ATOM     26 1HD2 ASN P   4      12.972  -5.161   7.099 +0.02 -0.01    +0.159     4.393
ATOM     27  CB  PHE P   5      15.906 -11.989   4.250 +0.54 +0.05    +0.073     4.393
ATOM     28  CG  PHE P   5      15.093 -13.162   4.716 -0.22 +0.00    -0.056     4.393
ATOM     29  CD1 PHE P   5      15.389 -14.448   4.274 -0.38 -0.00    +0.007     4.393
ATOM     30  CE1 PHE P   5      14.649 -15.542   4.714 -0.31 -0.00    +0.001     4.393
ATOM     31  CZ  PHE P   5      13.597 -15.360   5.606 +0.41 -0.00    +0.000     4.393
ATOM     32  CE2 PHE P   5      13.286 -14.074   6.052 -0.16 -0.00    +0.001     4.393
ATOM     33  CD2 PHE P   5      14.037 -12.983   5.605 -0.21 -0.00    +0.007     4.393
ATOM     34  CB  LEU P   6      11.265 -10.480   2.871 +3.29 -0.00    +0.038     4.393
ATOM     35  CG  LEU P   6      11.799  -9.692   4.074 +0.03 +0.00    -0.020     4.393
ATOM     36  CD2 LEU P   6      11.781 -10.498   5.367 +1.45 -0.00    +0.009     4.393
ATOM     37  CD1 LEU P   6      11.042  -8.401   4.229 +0.12 -0.00    +0.009     4.393
ATOM     38  C   LEU P   6      12.236 -11.746   0.959 -0.33 +0.02    +0.241     4.393
ATOM     39  O   LEU P   6      13.109 -11.067   0.433 -0.42 -0.03    -0.271     4.393
ATOM     40  N   GLN P   7      11.411 -12.510   0.262 -0.17 -0.04    -0.346     4.393
ATOM     41  HN  GLN P   7      10.760 -13.116   0.758 +0.09 +0.02    +0.163     4.393
ATOM     42  CA  GLN P   7      11.407 -12.509  -1.184 +0.21 +0.03    +0.177     4.393
ATOM     43  CB  GLN P   7      12.834 -12.637  -1.712 +4.72 -0.00    +0.044     4.393
ATOM     44  CG  GLN P   7      13.885 -12.892  -0.660 +0.25 -0.00    +0.105     4.393
ATOM     45  CD  GLN P   7      13.690 -14.197   0.045 -0.26 -0.00    +0.215     4.393
ATOM     46  OE1 GLN P   7      12.750 -14.367   0.814 -0.22 +0.02    -0.274     4.393
ATOM     47  NE2 GLN P   7      14.578 -15.134  -0.210 +0.06 -0.01    -0.370     4.393
ATOM     48 2HE2 GLN P   7      14.445 -16.024   0.271 +0.10 -0.00    +0.159     4.393
ATOM     49 1HE2 GLN P   7      15.360 -14.994  -0.850 +0.12 +0.01    +0.159     4.393
ATOM     50  C   GLN P   7      10.509 -13.633  -1.706 +0.49 +0.04    +0.241     4.393
ATOM     51  O   GLN P   7       9.471 -13.396  -2.304 +4.48 -0.06    -0.271     4.393
ATOM     52  N   SER P   8      10.942 -14.867  -1.510 -0.13 -0.03    -0.344     4.393
ATOM     53  HN  SER P   8      11.885 -15.018  -1.149 +0.11 +0.02    +0.163     4.393
ATOM     54  CA  SER P   8      10.103 -16.004  -1.799 -0.30 +0.01    +0.200     4.393
ATOM     55  C   SER P   8       9.731 -16.544  -0.430 -0.28 -0.00    +0.243     4.393
ATOM     56  O   SER P   8      10.542 -16.546   0.495 -0.51 +0.03    -0.271     4.393
ATOM     57  N   ARG P   9       8.497 -16.986  -0.279 -0.12 +0.00    -0.346     4.393
ATOM     58  HN  ARG P   9       7.795 -16.787  -0.992 +0.10 -0.01    +0.163     4.393
ATOM     59  CA  ARG P   9       8.138 -17.747   0.890 +1.45 +0.03    +0.172     4.393
ATOM     60  CB  ARG P   9       8.067 -16.851   2.102 -0.38 +0.00    +0.042     4.393
ATOM     61  C   ARG P   9       6.781 -18.361   0.588 -0.09 +0.02    +0.243     4.393
ATOM     62  N   PRO P  10       6.021 -17.728  -0.305 -0.13 -0.00    -0.336     4.393
ATOM     63  CD  PRO P  10       5.910 -16.272  -0.439 -0.30 +0.02    +0.127     4.393
ATOM     64  CA  PRO P  10       4.972 -18.371  -1.075 -0.29 +0.01    +0.188     4.393
ATOM     65  CG  PRO P  10       4.413 -16.120  -0.465 -0.21 +0.00    +0.022     4.393
ATOM     66  CB  PRO P  10       3.808 -17.389  -0.848 -0.49 +0.00    +0.038     4.393
ATOM     67  O   ARG P   9       6.374 -19.330   1.231 +2.88 -0.04    -0.271     4.393
ATOM     68  C   PRO P  10       5.347 -18.426  -2.562 -0.20 -0.01    +0.196     4.393
ATOM     69  O   PRO P  10       4.579 -18.904  -3.412 +0.05 -0.01    -0.646     4.393
ATOM     70  OXT PRO P  10       6.433 -17.987  -2.958 +0.07 +0.17    -0.646     4.393
ATOM     71  CB  SER P   8      10.880 -17.049  -2.601 +4.94 +0.00    +0.199     4.393
ATOM     72  OG  SER P   8      10.203 -18.293  -2.643 +1.11 +0.10    -0.398     4.393
ATOM     73  HG  SER P   8       9.278 -18.187  -2.830 -0.25 -0.11    +0.209     4.393
TER
ENDMDL


AVSFLD: # AVS field file
AVSFLD: #
AVSFLD: # Created by AutoDock
AVSFLD: #
AVSFLD: ndim=2           # number of dimensions in the field
AVSFLD: nspace=1         # number of physical coordinates
AVSFLD: veclen=7         # vector size
AVSFLD: dim1=73          # atoms
AVSFLD: dim2=10          # conformations
AVSFLD: data=Real       # data type (byte,integer,Real,double)
AVSFLD: field=uniform    # field coordinate layout
AVSFLD: label= x y z vdW Elec q RMS
AVSFLD: variable 1 file = dock.dlg.pdb filetype = ascii offset = 5 stride = 12
AVSFLD: variable 2 file = dock.dlg.pdb filetype = ascii offset = 6 stride = 12
AVSFLD: variable 3 file = dock.dlg.pdb filetype = ascii offset = 7 stride = 12
AVSFLD: variable 4 file = dock.dlg.pdb filetype = ascii offset = 8 stride = 12
AVSFLD: variable 5 file = dock.dlg.pdb filetype = ascii offset = 9 stride = 12
AVSFLD: variable 6 file = dock.dlg.pdb filetype = ascii offset = 10 stride = 12
AVSFLD: variable 7 file = dock.dlg.pdb filetype = ascii offset = 11 stride = 12
AVSFLD: # end of file

>>> Closing the docking parameter file (DPF)...
This docking finished at:			0:27 25" a.m., 11/25/2025


________________________________________________________________________________

.\autodock4.exe: Successful Completion on "LAPTOP-PFTQOH6G"

Real= 43m 59.76s,  CPU= 6m 23.25s,  System= 3.47s
________________________________________________________________________________

